 Entering Gaussian System, Link 0=g16
 Input=test_g16/H2O_6-31G_Q1_UHF.gjf
 Output=test_g16/H2O_6-31G_Q1_UHF.log
 Initial command:
 /opt/Programs/Gaussian/16RevA.03//g16/l1.exe "/opt/Programs/Gaussian/16RevA.03/g16/scratch/Gau-245922.inp" -scrdir="/opt/Programs/Gaussian/16RevA.03/g16/scratch/"
 Entering Link 1 = /opt/Programs/Gaussian/16RevA.03//g16/l1.exe PID=    245923.
  
 Copyright (c) 1988,1990,1992,1993,1995,1998,2003,2009,2016,
            Gaussian, Inc.  All Rights Reserved.
  
 This is part of the Gaussian(R) 16 program.  It is based on
 the Gaussian(R) 09 system (copyright 2009, Gaussian, Inc.),
 the Gaussian(R) 03 system (copyright 2003, Gaussian, Inc.),
 the Gaussian(R) 98 system (copyright 1998, Gaussian, Inc.),
 the Gaussian(R) 94 system (copyright 1995, Gaussian, Inc.),
 the Gaussian 92(TM) system (copyright 1992, Gaussian, Inc.),
 the Gaussian 90(TM) system (copyright 1990, Gaussian, Inc.),
 the Gaussian 88(TM) system (copyright 1988, Gaussian, Inc.),
 the Gaussian 86(TM) system (copyright 1986, Carnegie Mellon
 University), and the Gaussian 82(TM) system (copyright 1983,
 Carnegie Mellon University). Gaussian is a federally registered
 trademark of Gaussian, Inc.
  
 This software contains proprietary and confidential information,
 including trade secrets, belonging to Gaussian, Inc.
  
 This software is provided under written license and may be
 used, copied, transmitted, or stored only in accord with that
 written license.
  
 The following legend is applicable only to US Government
 contracts under FAR:
  
                    RESTRICTED RIGHTS LEGEND
  
 Use, reproduction and disclosure by the US Government is
 subject to restrictions as set forth in subparagraphs (a)
 and (c) of the Commercial Computer Software - Restricted
 Rights clause in FAR 52.227-19.
  
 Gaussian, Inc.
 340 Quinnipiac St., Bldg. 40, Wallingford CT 06492
  
  
 ---------------------------------------------------------------
 Warning -- This program may not be used in any manner that
 competes with the business of Gaussian, Inc. or will provide
 assistance to any competitor of Gaussian, Inc.  The licensee
 of this program is prohibited from giving any competitor of
 Gaussian, Inc. access to this program.  By using this program,
 the user acknowledges that Gaussian, Inc. is engaged in the
 business of creating and licensing software in the field of
 computational chemistry and represents and warrants to the
 licensee that it is not a competitor of Gaussian, Inc. and that
 it will not use this program in any manner prohibited above.
 ---------------------------------------------------------------
  

 Cite this work as:
 Gaussian 16, Revision A.03,
 M. J. Frisch, G. W. Trucks, H. B. Schlegel, G. E. Scuseria, 
 M. A. Robb, J. R. Cheeseman, G. Scalmani, V. Barone, 
 G. A. Petersson, H. Nakatsuji, X. Li, M. Caricato, A. V. Marenich, 
 J. Bloino, B. G. Janesko, R. Gomperts, B. Mennucci, H. P. Hratchian, 
 J. V. Ortiz, A. F. Izmaylov, J. L. Sonnenberg, D. Williams-Young, 
 F. Ding, F. Lipparini, F. Egidi, J. Goings, B. Peng, A. Petrone, 
 T. Henderson, D. Ranasinghe, V. G. Zakrzewski, J. Gao, N. Rega, 
 G. Zheng, W. Liang, M. Hada, M. Ehara, K. Toyota, R. Fukuda, 
 J. Hasegawa, M. Ishida, T. Nakajima, Y. Honda, O. Kitao, H. Nakai, 
 T. Vreven, K. Throssell, J. A. Montgomery, Jr., J. E. Peralta, 
 F. Ogliaro, M. J. Bearpark, J. J. Heyd, E. N. Brothers, K. N. Kudin, 
 V. N. Staroverov, T. A. Keith, R. Kobayashi, J. Normand, 
 K. Raghavachari, A. P. Rendell, J. C. Burant, S. S. Iyengar, 
 J. Tomasi, M. Cossi, J. M. Millam, M. Klene, C. Adamo, R. Cammi, 
 J. W. Ochterski, R. L. Martin, K. Morokuma, O. Farkas, 
 J. B. Foresman, and D. J. Fox, Gaussian, Inc., Wallingford CT, 2016.
 
 ******************************************
 Gaussian 16:  ES64L-G16RevA.03 25-Dec-2016
                 6-Feb-2026 
 ******************************************
 %Mem=8000MB
 %NProcShared=8
 Will use up to    8 processors via shared memory.
 ------------
 #p UHF/6-31G
 ------------
 1/38=1,172=1/1;
 2/12=2,17=6,18=5,40=1/2;
 3/5=1,6=6,11=2,25=1,30=1,116=2/1,2,3;
 4//1;
 5/5=2,38=5/2;
 6/7=2,8=2,9=2,10=2,28=1/1;
 99/5=1,9=1/99;
 Leave Link    1 at Fri Feb  6 07:16:46 2026, MaxMem=  1048576000 cpu:               0.1 elap:               0.0
 (Enter /opt/Programs/Gaussian/16RevA.03//g16/l101.exe)
 --------------------------------
 Generated by ChouChem Test Suite
 --------------------------------
 Symbolic Z-matrix:
 Charge =  1 Multiplicity = 2
 O                     0.        0.        0. 
 H                     0.        1.        0.8 
 H                     0.       -1.        0.8 
 
 ITRead=  0  0  0
 MicOpt= -1 -1 -1
 NAtoms=      3 NQM=        3 NQMF=       0 NMMI=      0 NMMIF=      0
                NMic=       0 NMicF=      0.
                    Isotopes and Nuclear Properties:
 (Nuclear quadrupole moments (NQMom) in fm**2, nuclear magnetic moments (NMagM)
  in nuclear magnetons)

  Atom         1           2           3
 IAtWgt=          16           1           1
 AtmWgt=  15.9949146   1.0078250   1.0078250
 NucSpn=           0           1           1
 AtZEff=  -0.0000000  -0.0000000  -0.0000000
 NQMom=    0.0000000   0.0000000   0.0000000
 NMagM=    0.0000000   2.7928460   2.7928460
 AtZNuc=   8.0000000   1.0000000   1.0000000
 Leave Link  101 at Fri Feb  6 07:16:46 2026, MaxMem=  1048576000 cpu:               1.1 elap:               0.1
 (Enter /opt/Programs/Gaussian/16RevA.03//g16/l202.exe)
                          Input orientation:                          
 ---------------------------------------------------------------------
 Center     Atomic      Atomic             Coordinates (Angstroms)
 Number     Number       Type             X           Y           Z
 ---------------------------------------------------------------------
      1          8           0        0.000000    0.000000    0.000000
      2          1           0        0.000000    1.000000    0.800000
      3          1           0        0.000000   -1.000000    0.800000
 ---------------------------------------------------------------------
                    Distance matrix (angstroms):
                    1          2          3
     1  O    0.000000
     2  H    1.280625   0.000000
     3  H    1.280625   2.000000   0.000000
 Stoichiometry    H2O(1+,2)
 Framework group  C2V[C2(O),SGV(H2)]
 Deg. of freedom     2
 Full point group                 C2V     NOp   4
 Largest Abelian subgroup         C2V     NOp   4
 Largest concise Abelian subgroup C2      NOp   2
                         Standard orientation:                         
 ---------------------------------------------------------------------
 Center     Atomic      Atomic             Coordinates (Angstroms)
 Number     Number       Type             X           Y           Z
 ---------------------------------------------------------------------
      1          8           0       -0.000000    0.000000    0.160000
      2          1           0        0.000000    1.000000   -0.640000
      3          1           0       -0.000000   -1.000000   -0.640000
 ---------------------------------------------------------------------
 Rotational constants (GHZ):         441.1309105         250.7275522         159.8645957
 Leave Link  202 at Fri Feb  6 07:16:46 2026, MaxMem=  1048576000 cpu:               0.0 elap:               0.0
 (Enter /opt/Programs/Gaussian/16RevA.03//g16/l301.exe)
 Standard basis: 6-31G (6D, 7F)
 Ernie: Thresh=  0.10000D-02 Tol=  0.10000D-05 Strict=F.
 There are     7 symmetry adapted cartesian basis functions of A1  symmetry.
 There are     0 symmetry adapted cartesian basis functions of A2  symmetry.
 There are     2 symmetry adapted cartesian basis functions of B1  symmetry.
 There are     4 symmetry adapted cartesian basis functions of B2  symmetry.
 There are     7 symmetry adapted basis functions of A1  symmetry.
 There are     0 symmetry adapted basis functions of A2  symmetry.
 There are     2 symmetry adapted basis functions of B1  symmetry.
 There are     4 symmetry adapted basis functions of B2  symmetry.
    13 basis functions,    30 primitive gaussians,    13 cartesian basis functions
     5 alpha electrons        4 beta electrons
       nuclear repulsion energy         6.8760762643 Hartrees.
 IExCor=    0 DFT=F Ex=HF Corr=None ExCW=0 ScaHFX=  1.000000
 ScaDFX=  1.000000  1.000000  1.000000  1.000000 ScalE2=  1.000000  1.000000
 IRadAn=      5 IRanWt=     -1 IRanGd=            0 ICorTp=0 IEmpDi=  4
 NAtoms=    3 NActive=    3 NUniq=    2 SFac= 2.25D+00 NAtFMM=   60 NAOKFM=F Big=F
 Integral buffers will be    131072 words long.
 Raffenetti 2 integral format.
 Two-electron integral symmetry is turned on.
 Leave Link  301 at Fri Feb  6 07:16:46 2026, MaxMem=  1048576000 cpu:               0.2 elap:               0.0
 (Enter /opt/Programs/Gaussian/16RevA.03//g16/l302.exe)
 NPDir=0 NMtPBC=     1 NCelOv=     1 NCel=       1 NClECP=     1 NCelD=      1
         NCelK=      1 NCelE2=     1 NClLst=     1 CellRange=     0.0.
 One-electron integrals computed using PRISM.
 One-electron integral symmetry used in STVInt
 NBasis=    13 RedAO= T EigKep=  1.17D-01  NBF=     7     0     2     4
 NBsUse=    13 1.00D-06 EigRej= -1.00D+00 NBFU=     7     0     2     4
 Leave Link  302 at Fri Feb  6 07:16:46 2026, MaxMem=  1048576000 cpu:               0.6 elap:               0.1
 (Enter /opt/Programs/Gaussian/16RevA.03//g16/l303.exe)
 DipDrv:  MaxL=1.
 Leave Link  303 at Fri Feb  6 07:16:46 2026, MaxMem=  1048576000 cpu:               0.2 elap:               0.0
 (Enter /opt/Programs/Gaussian/16RevA.03//g16/l401.exe)
 ExpMin= 1.61D-01 ExpMax= 5.48D+03 ExpMxC= 8.25D+02 IAcc=3 IRadAn=         5 AccDes= 0.00D+00
 Harris functional with IExCor=  205 and IRadAn=       5 diagonalized for initial guess.
 HarFok:  IExCor=  205 AccDes= 0.00D+00 IRadAn=         5 IDoV= 1 UseB2=F ITyADJ=14
 ICtDFT=  3500011 ScaDFX=  1.000000  1.000000  1.000000  1.000000
 FoFCou: FMM=F IPFlag=           0 FMFlag=      100000 FMFlg1=           0
         NFxFlg=           0 DoJE=T BraDBF=F KetDBF=T FulRan=T
         wScrn=  0.000000 ICntrl=       500 IOpCl=  0 I1Cent=   200000004 NGrid=           0
         NMat0=    1 NMatS0=      1 NMatT0=    0 NMatD0=    1 NMtDS0=    0 NMtDT0=    0
 Petite list used in FoFCou.
 Harris En= -75.6375917403883    
 JPrj=0 DoOrth=F DoCkMO=F.
 Initial guess orbital symmetries:
 Alpha Orbitals:
       Occupied  (A1) (A1) (B2) (A1) (B1)
       Virtual   (A1) (B2) (A1) (B2) (B1) (A1) (B2) (A1)
 Beta  Orbitals:
       Occupied  (A1) (A1) (B2) (A1)
       Virtual   (B1) (A1) (B2) (A1) (B2) (B1) (A1) (B2) (A1)
 The electronic state of the initial guess is 2-B1.
 Initial guess <Sx>= 0.0000 <Sy>= 0.0000 <Sz>= 0.5000 <S**2>= 0.7500 S= 0.5000
 Leave Link  401 at Fri Feb  6 07:16:46 2026, MaxMem=  1048576000 cpu:               0.6 elap:               0.1
 (Enter /opt/Programs/Gaussian/16RevA.03//g16/l502.exe)
 Keep R1 and R2 ints in memory in symmetry-blocked form, NReq=1610710.
 FoFCou: FMM=F IPFlag=           0 FMFlag=           0 FMFlg1=           0
         NFxFlg=           0 DoJE=F BraDBF=F KetDBF=F FulRan=T
         wScrn=  0.000000 ICntrl=       600 IOpCl=  0 I1Cent=           0 NGrid=           0
         NMat0=    1 NMatS0=     91 NMatT0=    0 NMatD0=    1 NMtDS0=    0 NMtDT0=    0
 Petite list used in FoFCou.
 UHF open shell SCF:
 Using DIIS extrapolation, IDIIS=  1040.
 NGot=  1048576000 LenX=  1048571073 LenY=  1048570191
 Requested convergence on RMS density matrix=1.00D-08 within 128 cycles.
 Requested convergence on MAX density matrix=1.00D-06.
 Requested convergence on             energy=1.00D-06.
 No special actions if energy rises.

 Cycle   1  Pass 1  IDiag  1:
 E= -75.4927208597243    
 DIIS: error= 4.17D-02 at cycle   1 NSaved=   1.
 NSaved= 1 IEnMin= 1 EnMin= -75.4927208597243     IErMin= 1 ErrMin= 4.17D-02
 ErrMax= 4.17D-02  0.00D+00 EMaxC= 1.00D-01 BMatC= 1.21D-01 BMatP= 1.21D-01
 IDIUse=3 WtCom= 5.83D-01 WtEn= 4.17D-01
 Coeff-Com:  0.100D+01
 Coeff-En:   0.100D+01
 Coeff:      0.100D+01
 Gap=     0.764 Goal=   None    Shift=    0.000
 Gap=     0.688 Goal=   None    Shift=    0.000
 GapD=    0.688 DampG=2.000 DampE=0.500 DampFc=1.0000 IDamp=-1.
 RMSDP=1.12D-02 MaxDP=6.11D-02              OVMax= 4.92D-02

 Cycle   2  Pass 1  IDiag  1:
 E= -75.5064615361781     Delta-E=       -0.013740676454 Rises=F Damp=F
 DIIS: error= 2.04D-02 at cycle   2 NSaved=   2.
 NSaved= 2 IEnMin= 2 EnMin= -75.5064615361781     IErMin= 2 ErrMin= 2.04D-02
 ErrMax= 2.04D-02  0.00D+00 EMaxC= 1.00D-01 BMatC= 1.32D-02 BMatP= 1.21D-01
 IDIUse=3 WtCom= 7.96D-01 WtEn= 2.04D-01
 Coeff-Com:  0.158D+00 0.842D+00
 Coeff-En:   0.000D+00 0.100D+01
 Coeff:      0.126D+00 0.874D+00
 Gap=     0.731 Goal=   None    Shift=    0.000
 Gap=     0.682 Goal=   None    Shift=    0.000
 RMSDP=3.57D-03 MaxDP=3.10D-02 DE=-1.37D-02 OVMax= 3.25D-02

 Cycle   3  Pass 1  IDiag  1:
 E= -75.5095222585400     Delta-E=       -0.003060722362 Rises=F Damp=F
 DIIS: error= 9.85D-03 at cycle   3 NSaved=   3.
 NSaved= 3 IEnMin= 3 EnMin= -75.5095222585400     IErMin= 3 ErrMin= 9.85D-03
 ErrMax= 9.85D-03  0.00D+00 EMaxC= 1.00D-01 BMatC= 2.72D-03 BMatP= 1.32D-02
 IDIUse=3 WtCom= 9.01D-01 WtEn= 9.85D-02
 Coeff-Com: -0.533D-01 0.212D+00 0.841D+00
 Coeff-En:   0.000D+00 0.000D+00 0.100D+01
 Coeff:     -0.481D-01 0.192D+00 0.857D+00
 Gap=     0.747 Goal=   None    Shift=    0.000
 Gap=     0.677 Goal=   None    Shift=    0.000
 RMSDP=1.68D-03 MaxDP=1.21D-02 DE=-3.06D-03 OVMax= 1.22D-02

 Cycle   4  Pass 1  IDiag  1:
 E= -75.5104719881407     Delta-E=       -0.000949729601 Rises=F Damp=F
 DIIS: error= 4.90D-03 at cycle   4 NSaved=   4.
 NSaved= 4 IEnMin= 4 EnMin= -75.5104719881407     IErMin= 4 ErrMin= 4.90D-03
 ErrMax= 4.90D-03  0.00D+00 EMaxC= 1.00D-01 BMatC= 5.47D-04 BMatP= 2.72D-03
 IDIUse=3 WtCom= 9.51D-01 WtEn= 4.90D-02
 Coeff-Com:  0.306D-01-0.257D+00-0.668D+00 0.189D+01
 Coeff-En:   0.000D+00 0.000D+00 0.000D+00 0.100D+01
 Coeff:      0.291D-01-0.245D+00-0.635D+00 0.185D+01
 Gap=     0.752 Goal=   None    Shift=    0.000
 Gap=     0.675 Goal=   None    Shift=    0.000
 RMSDP=1.87D-03 MaxDP=1.38D-02 DE=-9.50D-04 OVMax= 1.85D-02

 Cycle   5  Pass 1  IDiag  1:
 E= -75.5112452125453     Delta-E=       -0.000773224405 Rises=F Damp=F
 DIIS: error= 2.96D-03 at cycle   5 NSaved=   5.
 NSaved= 5 IEnMin= 5 EnMin= -75.5112452125453     IErMin= 5 ErrMin= 2.96D-03
 ErrMax= 2.96D-03  0.00D+00 EMaxC= 1.00D-01 BMatC= 2.46D-04 BMatP= 5.47D-04
 IDIUse=3 WtCom= 9.70D-01 WtEn= 2.96D-02
 Coeff-Com: -0.305D-01 0.386D+00 0.773D+00-0.354D+01 0.342D+01
 Coeff-En:   0.000D+00 0.000D+00 0.000D+00 0.000D+00 0.100D+01
 Coeff:     -0.296D-01 0.375D+00 0.750D+00-0.344D+01 0.334D+01
 Gap=     0.765 Goal=   None    Shift=    0.000
 Gap=     0.669 Goal=   None    Shift=    0.000
 RMSDP=3.16D-03 MaxDP=1.88D-02 DE=-7.73D-04 OVMax= 2.83D-02

 Cycle   6  Pass 1  IDiag  1:
 E= -75.5119799093956     Delta-E=       -0.000734696850 Rises=F Damp=F
 DIIS: error= 1.15D-03 at cycle   6 NSaved=   6.
 NSaved= 6 IEnMin= 6 EnMin= -75.5119799093956     IErMin= 6 ErrMin= 1.15D-03
 ErrMax= 1.15D-03  0.00D+00 EMaxC= 1.00D-01 BMatC= 3.45D-05 BMatP= 2.46D-04
 IDIUse=3 WtCom= 9.88D-01 WtEn= 1.15D-02
 Coeff-Com:  0.158D-01-0.236D+00-0.447D+00 0.230D+01-0.281D+01 0.217D+01
 Coeff-En:   0.000D+00 0.000D+00 0.000D+00 0.000D+00 0.000D+00 0.100D+01
 Coeff:      0.156D-01-0.233D+00-0.442D+00 0.228D+01-0.278D+01 0.216D+01
 Gap=     0.772 Goal=   None    Shift=    0.000
 Gap=     0.666 Goal=   None    Shift=    0.000
 RMSDP=1.61D-03 MaxDP=9.60D-03 DE=-7.35D-04 OVMax= 1.33D-02

 Cycle   7  Pass 1  IDiag  1:
 E= -75.5120860499762     Delta-E=       -0.000106140581 Rises=F Damp=F
 DIIS: error= 1.55D-04 at cycle   7 NSaved=   7.
 NSaved= 7 IEnMin= 7 EnMin= -75.5120860499762     IErMin= 7 ErrMin= 1.55D-04
 ErrMax= 1.55D-04  0.00D+00 EMaxC= 1.00D-01 BMatC= 9.17D-07 BMatP= 3.45D-05
 IDIUse=3 WtCom= 9.98D-01 WtEn= 1.55D-03
 Coeff-Com: -0.119D-01 0.182D+00 0.337D+00-0.177D+01 0.219D+01-0.177D+01
 Coeff-Com:  0.185D+01
 Coeff-En:   0.000D+00 0.000D+00 0.000D+00 0.000D+00 0.000D+00 0.000D+00
 Coeff-En:   0.100D+01
 Coeff:     -0.119D-01 0.181D+00 0.337D+00-0.177D+01 0.219D+01-0.177D+01
 Coeff:      0.185D+01
 Gap=     0.773 Goal=   None    Shift=    0.000
 Gap=     0.666 Goal=   None    Shift=    0.000
 RMSDP=1.07D-04 MaxDP=9.28D-04 DE=-1.06D-04 OVMax= 1.52D-03

 Cycle   8  Pass 1  IDiag  1:
 E= -75.5120873337265     Delta-E=       -0.000001283750 Rises=F Damp=F
 DIIS: error= 4.73D-05 at cycle   8 NSaved=   8.
 NSaved= 8 IEnMin= 8 EnMin= -75.5120873337265     IErMin= 8 ErrMin= 4.73D-05
 ErrMax= 4.73D-05  0.00D+00 EMaxC= 1.00D-01 BMatC= 9.28D-08 BMatP= 9.17D-07
 IDIUse=1 WtCom= 1.00D+00 WtEn= 0.00D+00
 Coeff-Com:  0.315D-02-0.486D-01-0.905D-01 0.473D+00-0.591D+00 0.485D+00
 Coeff-Com: -0.762D+00 0.153D+01
 Coeff:      0.315D-02-0.486D-01-0.905D-01 0.473D+00-0.591D+00 0.485D+00
 Coeff:     -0.762D+00 0.153D+01
 Gap=     0.773 Goal=   None    Shift=    0.000
 Gap=     0.666 Goal=   None    Shift=    0.000
 RMSDP=4.59D-05 MaxDP=4.05D-04 DE=-1.28D-06 OVMax= 6.07D-04

 Cycle   9  Pass 1  IDiag  1:
 E= -75.5120874689738     Delta-E=       -0.000000135247 Rises=F Damp=F
 DIIS: error= 1.48D-05 at cycle   9 NSaved=   9.
 NSaved= 9 IEnMin= 9 EnMin= -75.5120874689738     IErMin= 9 ErrMin= 1.48D-05
 ErrMax= 1.48D-05  0.00D+00 EMaxC= 1.00D-01 BMatC= 7.12D-09 BMatP= 9.28D-08
 IDIUse=1 WtCom= 1.00D+00 WtEn= 0.00D+00
 Coeff-Com: -0.157D-03 0.281D-02 0.559D-02-0.269D-01 0.362D-01-0.287D-01
 Coeff-Com:  0.108D+00-0.552D+00 0.146D+01
 Coeff:     -0.157D-03 0.281D-02 0.559D-02-0.269D-01 0.362D-01-0.287D-01
 Coeff:      0.108D+00-0.552D+00 0.146D+01
 Gap=     0.773 Goal=   None    Shift=    0.000
 Gap=     0.666 Goal=   None    Shift=    0.000
 RMSDP=9.16D-06 MaxDP=7.43D-05 DE=-1.35D-07 OVMax= 1.14D-04

 Cycle  10  Pass 1  IDiag  1:
 E= -75.5120874769635     Delta-E=       -0.000000007990 Rises=F Damp=F
 DIIS: error= 4.24D-06 at cycle  10 NSaved=  10.
 NSaved=10 IEnMin=10 EnMin= -75.5120874769635     IErMin=10 ErrMin= 4.24D-06
 ErrMax= 4.24D-06  0.00D+00 EMaxC= 1.00D-01 BMatC= 5.02D-10 BMatP= 7.12D-09
 IDIUse=1 WtCom= 1.00D+00 WtEn= 0.00D+00
 Coeff-Com:  0.116D-04-0.556D-03-0.873D-03 0.459D-02-0.741D-02 0.488D-02
 Coeff-Com: -0.285D-01 0.223D+00-0.797D+00 0.160D+01
 Coeff:      0.116D-04-0.556D-03-0.873D-03 0.459D-02-0.741D-02 0.488D-02
 Coeff:     -0.285D-01 0.223D+00-0.797D+00 0.160D+01
 Gap=     0.773 Goal=   None    Shift=    0.000
 Gap=     0.666 Goal=   None    Shift=    0.000
 RMSDP=1.96D-06 MaxDP=1.95D-05 DE=-7.99D-09 OVMax= 2.36D-05

 Cycle  11  Pass 1  IDiag  1:
 E= -75.5120874773689     Delta-E=       -0.000000000405 Rises=F Damp=F
 DIIS: error= 8.30D-07 at cycle  11 NSaved=  11.
 NSaved=11 IEnMin=11 EnMin= -75.5120874773689     IErMin=11 ErrMin= 8.30D-07
 ErrMax= 8.30D-07  0.00D+00 EMaxC= 1.00D-01 BMatC= 3.62D-11 BMatP= 5.02D-10
 IDIUse=1 WtCom= 1.00D+00 WtEn= 0.00D+00
 Coeff-Com:  0.897D-05 0.959D-04-0.651D-04-0.228D-03 0.113D-02-0.193D-03
 Coeff-Com:  0.603D-02-0.760D-01 0.311D+00-0.757D+00 0.152D+01
 Coeff:      0.897D-05 0.959D-04-0.651D-04-0.228D-03 0.113D-02-0.193D-03
 Coeff:      0.603D-02-0.760D-01 0.311D+00-0.757D+00 0.152D+01
 Gap=     0.773 Goal=   None    Shift=    0.000
 Gap=     0.666 Goal=   None    Shift=    0.000
 RMSDP=5.68D-07 MaxDP=4.77D-06 DE=-4.05D-10 OVMax= 5.93D-06

 Cycle  12  Pass 1  IDiag  1:
 E= -75.5120874773865     Delta-E=       -0.000000000018 Rises=F Damp=F
 DIIS: error= 3.40D-07 at cycle  12 NSaved=  12.
 NSaved=12 IEnMin=12 EnMin= -75.5120874773865     IErMin=12 ErrMin= 3.40D-07
 ErrMax= 3.40D-07  0.00D+00 EMaxC= 1.00D-01 BMatC= 3.11D-12 BMatP= 3.62D-11
 IDIUse=1 WtCom= 1.00D+00 WtEn= 0.00D+00
 Coeff-Com: -0.643D-05 0.400D-04 0.172D-03-0.627D-03 0.603D-03-0.690D-03
 Coeff-Com:  0.122D-02 0.429D-02-0.321D-01 0.106D+00-0.383D+00 0.130D+01
 Coeff:     -0.643D-05 0.400D-04 0.172D-03-0.627D-03 0.603D-03-0.690D-03
 Coeff:      0.122D-02 0.429D-02-0.321D-01 0.106D+00-0.383D+00 0.130D+01
 Gap=     0.773 Goal=   None    Shift=    0.000
 Gap=     0.666 Goal=   None    Shift=    0.000
 RMSDP=2.24D-07 MaxDP=1.51D-06 DE=-1.76D-11 OVMax= 2.28D-06

 Cycle  13  Pass 1  IDiag  1:
 E= -75.5120874773887     Delta-E=       -0.000000000002 Rises=F Damp=F
 DIIS: error= 4.46D-08 at cycle  13 NSaved=  13.
 NSaved=13 IEnMin=13 EnMin= -75.5120874773887     IErMin=13 ErrMin= 4.46D-08
 ErrMax= 4.46D-08  0.00D+00 EMaxC= 1.00D-01 BMatC= 5.71D-14 BMatP= 3.11D-12
 IDIUse=1 WtCom= 1.00D+00 WtEn= 0.00D+00
 Coeff-Com:  0.899D-06-0.603D-05-0.298D-04 0.101D-03-0.109D-03 0.117D-03
 Coeff-Com: -0.474D-03 0.170D-02-0.386D-02 0.424D-02 0.284D-01-0.318D+00
 Coeff-Com:  0.129D+01
 Coeff:      0.899D-06-0.603D-05-0.298D-04 0.101D-03-0.109D-03 0.117D-03
 Coeff:     -0.474D-03 0.170D-02-0.386D-02 0.424D-02 0.284D-01-0.318D+00
 Coeff:      0.129D+01
 Gap=     0.773 Goal=   None    Shift=    0.000
 Gap=     0.666 Goal=   None    Shift=    0.000
 RMSDP=2.23D-08 MaxDP=1.51D-07 DE=-2.27D-12 OVMax= 2.19D-07

 Cycle  14  Pass 1  IDiag  1:
 E= -75.5120874773888     Delta-E=       -0.000000000000 Rises=F Damp=F
 DIIS: error= 3.77D-09 at cycle  14 NSaved=  14.
 NSaved=14 IEnMin=14 EnMin= -75.5120874773888     IErMin=14 ErrMin= 3.77D-09
 ErrMax= 3.77D-09  0.00D+00 EMaxC= 1.00D-01 BMatC= 6.20D-16 BMatP= 5.71D-14
 IDIUse=1 WtCom= 1.00D+00 WtEn= 0.00D+00
 Coeff-Com: -0.321D-06 0.352D-05 0.111D-04-0.439D-04 0.528D-04-0.475D-04
 Coeff-Com:  0.169D-03-0.768D-03 0.226D-02-0.422D-02-0.147D-02 0.787D-01
 Coeff-Com: -0.429D+00 0.135D+01
 Coeff:     -0.321D-06 0.352D-05 0.111D-04-0.439D-04 0.528D-04-0.475D-04
 Coeff:      0.169D-03-0.768D-03 0.226D-02-0.422D-02-0.147D-02 0.787D-01
 Coeff:     -0.429D+00 0.135D+01
 Gap=     0.773 Goal=   None    Shift=    0.000
 Gap=     0.666 Goal=   None    Shift=    0.000
 RMSDP=1.84D-09 MaxDP=9.37D-09 DE=-2.84D-14 OVMax= 1.49D-08

 SCF Done:  E(UHF) =  -75.5120874774     A.U. after   14 cycles
            NFock= 14  Conv=0.18D-08     -V/T= 2.0075
 <Sx>= 0.0000 <Sy>= 0.0000 <Sz>= 0.5000 <S**2>= 0.8013 S= 0.5253
 <L.S>=  0.00000000000    
 KE= 7.494946139687D+01 PE=-1.891751047170D+02 EE= 3.183747957843D+01
 Annihilation of the first spin contaminant:
 S**2 before annihilation     0.8013,   after     0.7515
 Leave Link  502 at Fri Feb  6 07:16:46 2026, MaxMem=  1048576000 cpu:               0.6 elap:               0.1
 (Enter /opt/Programs/Gaussian/16RevA.03//g16/l601.exe)
 Copying SCF densities to generalized density rwf, IOpCl= 1 IROHF=0.

 **********************************************************************

            Population analysis using the SCF density.

 **********************************************************************

 Orbital symmetries:
 Alpha Orbitals:
       Occupied  (A1) (A1) (B1) (B2) (A1)
       Virtual   (A1) (B2) (A1) (B2) (B1) (A1) (B2) (A1)
 Beta  Orbitals:
       Occupied  (A1) (A1) (B2) (A1)
       Virtual   (B1) (A1) (B2) (A1) (B2) (A1) (B1) (B2) (A1)
 The electronic state is 2-B1.
 Alpha  occ. eigenvalues --  -21.11673  -1.78605  -1.06658  -1.04592  -1.00226
 Alpha virt. eigenvalues --   -0.22934  -0.16632   0.57738   0.63249   0.69025
 Alpha virt. eigenvalues --    0.83835   0.94893   1.16925
  Beta  occ. eigenvalues --  -21.06125  -1.58125  -0.97185  -0.91878
  Beta virt. eigenvalues --   -0.25318  -0.22100  -0.15561   0.56288   0.61124
  Beta virt. eigenvalues --    0.87600   0.88910   0.99247   1.22276
          Condensed to atoms (all electrons):
               1          2          3
     1  O    7.859779   0.171570   0.171570
     2  H    0.171570   0.233757  -0.006786
     3  H    0.171570  -0.006786   0.233757
          Atomic-Atomic Spin Densities.
               1          2          3
     1  O    1.343504  -0.036132  -0.036132
     2  H   -0.036132  -0.102861   0.003373
     3  H   -0.036132   0.003373  -0.102861
 Mulliken charges and spin densities:
               1          2
     1  O   -0.202919   1.271240
     2  H    0.601459  -0.135620
     3  H    0.601459  -0.135620
 Sum of Mulliken charges =   1.00000   1.00000
 Mulliken charges and spin densities with hydrogens summed into heavy atoms:
               1          2
     1  O    1.000000   1.000000
 Electronic spatial extent (au):  <R**2>=             17.7463
 Charge=              1.0000 electrons
 Dipole moment (field-independent basis, Debye):
    X=             -0.0000    Y=             -0.0000    Z=             -3.7287  Tot=              3.7287
 Quadrupole moment (field-independent basis, Debye-Ang):
   XX=             -5.3144   YY=             -0.2260   ZZ=             -3.8041
   XY=              0.0000   XZ=              0.0000   YZ=             -0.0000
 Traceless Quadrupole moment (field-independent basis, Debye-Ang):
   XX=             -2.1995   YY=              2.8888   ZZ=             -0.6893
   XY=              0.0000   XZ=              0.0000   YZ=             -0.0000
 Octapole moment (field-independent basis, Debye-Ang**2):
  XXX=              0.0000  YYY=              0.0000  ZZZ=             -2.8672  XYY=             -0.0000
  XXY=              0.0000  XXZ=             -0.2619  XZZ=             -0.0000  YZZ=             -0.0000
  YYZ=             -4.2842  XYZ=             -0.0000
 Hexadecapole moment (field-independent basis, Debye-Ang**3):
 XXXX=             -3.3203 YYYY=             -1.6076 ZZZZ=             -5.4776 XXXY=             -0.0000
 XXXZ=             -0.0000 YYYX=              0.0000 YYYZ=             -0.0000 ZZZX=              0.0000
 ZZZY=             -0.0000 XXYY=             -1.8889 XXZZ=             -1.6351 YYZZ=              0.2649
 XXYZ=             -0.0000 YYXZ=              0.0000 ZZXY=              0.0000
 N-N= 6.876076264268D+00 E-N=-1.891751047071D+02  KE= 7.494946139687D+01
 Symmetry A1   KE= 6.855168356427D+01
 Symmetry A2   KE= 0.000000000000D+00
 Symmetry B1   KE= 2.712038066611D+00
 Symmetry B2   KE= 3.685739765996D+00
 Symmetry A1   SP=-1.019528072846D-15
 Symmetry A2   SP= 0.000000000000D+00
 Symmetry B1   SP= 1.000000000000D+00
 Symmetry B2   SP=-2.912888439802D-15
                          Isotropic Fermi Contact Couplings
        Atom                 a.u.       MegaHertz       Gauss      10(-4) cm-1
     1  O(17)              0.31641    -191.80682     -68.44144     -63.97987
     2  H(1)              -0.06022    -269.15919     -96.04269     -89.78184
     3  H(1)              -0.06022    -269.15919     -96.04269     -89.78184
 --------------------------------------------------------
       Center         ----  Spin Dipole Couplings  ----
                      3XX-RR        3YY-RR        3ZZ-RR
 --------------------------------------------------------
     1   Atom        3.281599     -1.553311     -1.728288
     2   Atom       -0.057910      0.050239      0.007672
     3   Atom       -0.057910      0.050239      0.007672
 --------------------------------------------------------
                        XY            XZ            YZ
 --------------------------------------------------------
     1   Atom       -0.000000     -0.000000      0.000000
     2   Atom       -0.000000     -0.000000     -0.108364
     3   Atom        0.000000      0.000000      0.108364
 --------------------------------------------------------


 ---------------------------------------------------------------------------------
              Anisotropic Spin Dipole Couplings in Principal Axis System
 ---------------------------------------------------------------------------------

       Atom             a.u.   MegaHertz   Gauss  10(-4) cm-1        Axes

              Baa    -1.7283   125.058    44.624    41.715  0.0000  0.0000  1.0000
     1 O(17)  Bbb    -1.5533   112.396    40.106    37.491 -0.0000  1.0000  0.0000
              Bcc     3.2816  -237.454   -84.730   -79.206  1.0000  0.0000  0.0000
 
              Baa    -0.0815   -43.473   -15.512   -14.501  0.0000  0.6353  0.7722
     2 H(1)   Bbb    -0.0579   -30.898   -11.025   -10.307  1.0000 -0.0000  0.0000
              Bcc     0.1394    74.371    26.538    24.808  0.0000  0.7722 -0.6353
 
              Baa    -0.0815   -43.473   -15.512   -14.501 -0.0000 -0.6353  0.7722
     3 H(1)   Bbb    -0.0579   -30.898   -11.025   -10.307  1.0000 -0.0000  0.0000
              Bcc     0.1394    74.371    26.538    24.808  0.0000  0.7722  0.6353
 

 ---------------------------------------------------------------------------------

 No NMR shielding tensors so no spin-rotation constants.
 Leave Link  601 at Fri Feb  6 07:16:46 2026, MaxMem=  1048576000 cpu:               1.0 elap:               0.1
 (Enter /opt/Programs/Gaussian/16RevA.03//g16/l9999.exe)
 1\1\GINC-CHOU\SP\UHF\6-31G\H2O1(1+,2)\RTCHOU\06-Feb-2026\0\\#p UHF/6-3
 1G\\Generated by ChouChem Test Suite\\1,2\O,0,0.,0.,0.\H,0,0.,1.,0.8\H
 ,0,0.,-1.,0.8\\Version=ES64L-G16RevA.03\State=2-B1\HF=-75.5120875\S2=0
 .80131\S2-1=0.\S2A=0.751523\RMSD=1.841e-09\Dipole=0.,0.,1.4669982\Quad
 rupole=-1.6352931,2.147747,-0.5124539,0.,0.,0.\PG=C02V [C2(O1),SGV(H2)
 ]\\@


 WE MIGHT AS WELL ATTEMPT TO INTRODUCE A NEW PLANET 
 INTO THE SOLAR SYSTEM, OR TO ANNIHILATE ONE ALREADYIN EXISTENCE, 
 AS TO CREATE OR DESTROY A PARTICLE OF HYDROGEN.
 ALL THE CHANGES WE CAN PRODUCE CONSIST IN SEPARATING PARTICLES
 THAT ARE IN A STATE OF ... COMBINATION, AND JOINING 
 THOSE THAT WERE PREVIOUSLY AT A DISTANCE.

                                    -- JOHN DALTON, 1810
 Job cpu time:       0 days  0 hours  0 minutes  4.7 seconds.
 Elapsed time:       0 days  0 hours  0 minutes  0.6 seconds.
 File lengths (MBytes):  RWF=      6 Int=      0 D2E=      0 Chk=      1 Scr=      1
 Normal termination of Gaussian 16 at Fri Feb  6 07:16:46 2026.
