 Entering Gaussian System, Link 0=g16
 Input=test_g16/H2O_STO-3G_Q0_RCCSD.gjf
 Output=test_g16/H2O_STO-3G_Q0_RCCSD.log
 Initial command:
 /opt/Programs/Gaussian/16RevA.03//g16/l1.exe "/opt/Programs/Gaussian/16RevA.03/g16/scratch/Gau-245994.inp" -scrdir="/opt/Programs/Gaussian/16RevA.03/g16/scratch/"
 Entering Link 1 = /opt/Programs/Gaussian/16RevA.03//g16/l1.exe PID=    245995.
  
 Copyright (c) 1988,1990,1992,1993,1995,1998,2003,2009,2016,
            Gaussian, Inc.  All Rights Reserved.
  
 This is part of the Gaussian(R) 16 program.  It is based on
 the Gaussian(R) 09 system (copyright 2009, Gaussian, Inc.),
 the Gaussian(R) 03 system (copyright 2003, Gaussian, Inc.),
 the Gaussian(R) 98 system (copyright 1998, Gaussian, Inc.),
 the Gaussian(R) 94 system (copyright 1995, Gaussian, Inc.),
 the Gaussian 92(TM) system (copyright 1992, Gaussian, Inc.),
 the Gaussian 90(TM) system (copyright 1990, Gaussian, Inc.),
 the Gaussian 88(TM) system (copyright 1988, Gaussian, Inc.),
 the Gaussian 86(TM) system (copyright 1986, Carnegie Mellon
 University), and the Gaussian 82(TM) system (copyright 1983,
 Carnegie Mellon University). Gaussian is a federally registered
 trademark of Gaussian, Inc.
  
 This software contains proprietary and confidential information,
 including trade secrets, belonging to Gaussian, Inc.
  
 This software is provided under written license and may be
 used, copied, transmitted, or stored only in accord with that
 written license.
  
 The following legend is applicable only to US Government
 contracts under FAR:
  
                    RESTRICTED RIGHTS LEGEND
  
 Use, reproduction and disclosure by the US Government is
 subject to restrictions as set forth in subparagraphs (a)
 and (c) of the Commercial Computer Software - Restricted
 Rights clause in FAR 52.227-19.
  
 Gaussian, Inc.
 340 Quinnipiac St., Bldg. 40, Wallingford CT 06492
  
  
 ---------------------------------------------------------------
 Warning -- This program may not be used in any manner that
 competes with the business of Gaussian, Inc. or will provide
 assistance to any competitor of Gaussian, Inc.  The licensee
 of this program is prohibited from giving any competitor of
 Gaussian, Inc. access to this program.  By using this program,
 the user acknowledges that Gaussian, Inc. is engaged in the
 business of creating and licensing software in the field of
 computational chemistry and represents and warrants to the
 licensee that it is not a competitor of Gaussian, Inc. and that
 it will not use this program in any manner prohibited above.
 ---------------------------------------------------------------
  

 Cite this work as:
 Gaussian 16, Revision A.03,
 M. J. Frisch, G. W. Trucks, H. B. Schlegel, G. E. Scuseria, 
 M. A. Robb, J. R. Cheeseman, G. Scalmani, V. Barone, 
 G. A. Petersson, H. Nakatsuji, X. Li, M. Caricato, A. V. Marenich, 
 J. Bloino, B. G. Janesko, R. Gomperts, B. Mennucci, H. P. Hratchian, 
 J. V. Ortiz, A. F. Izmaylov, J. L. Sonnenberg, D. Williams-Young, 
 F. Ding, F. Lipparini, F. Egidi, J. Goings, B. Peng, A. Petrone, 
 T. Henderson, D. Ranasinghe, V. G. Zakrzewski, J. Gao, N. Rega, 
 G. Zheng, W. Liang, M. Hada, M. Ehara, K. Toyota, R. Fukuda, 
 J. Hasegawa, M. Ishida, T. Nakajima, Y. Honda, O. Kitao, H. Nakai, 
 T. Vreven, K. Throssell, J. A. Montgomery, Jr., J. E. Peralta, 
 F. Ogliaro, M. J. Bearpark, J. J. Heyd, E. N. Brothers, K. N. Kudin, 
 V. N. Staroverov, T. A. Keith, R. Kobayashi, J. Normand, 
 K. Raghavachari, A. P. Rendell, J. C. Burant, S. S. Iyengar, 
 J. Tomasi, M. Cossi, J. M. Millam, M. Klene, C. Adamo, R. Cammi, 
 J. W. Ochterski, R. L. Martin, K. Morokuma, O. Farkas, 
 J. B. Foresman, and D. J. Fox, Gaussian, Inc., Wallingford CT, 2016.
 
 ******************************************
 Gaussian 16:  ES64L-G16RevA.03 25-Dec-2016
                 6-Feb-2026 
 ******************************************
 %Mem=8000MB
 %NProcShared=8
 Will use up to    8 processors via shared memory.
 --------------
 #p CCSD/STO-3G
 --------------
 1/38=1,172=1/1;
 2/12=2,17=6,18=5,40=1/2;
 3/6=3,11=9,25=1,30=1/1,2,3;
 4//1;
 5/5=2,38=5/2;
 8/6=4,9=120000,10=1/1,4;
 9/5=7/13;
 6/7=2,8=2,9=2,10=2/1;
 99/5=1,9=1/99;
 Leave Link    1 at Fri Feb  6 07:16:46 2026, MaxMem=  1048576000 cpu:               0.1 elap:               0.0
 (Enter /opt/Programs/Gaussian/16RevA.03//g16/l101.exe)
 --------------------------------
 Generated by ChouChem Test Suite
 --------------------------------
 Symbolic Z-matrix:
 Charge =  0 Multiplicity = 1
 O                     0.        0.        0. 
 H                     0.        1.        0.8 
 H                     0.       -1.        0.8 
 
 ITRead=  0  0  0
 MicOpt= -1 -1 -1
 NAtoms=      3 NQM=        3 NQMF=       0 NMMI=      0 NMMIF=      0
                NMic=       0 NMicF=      0.
                    Isotopes and Nuclear Properties:
 (Nuclear quadrupole moments (NQMom) in fm**2, nuclear magnetic moments (NMagM)
  in nuclear magnetons)

  Atom         1           2           3
 IAtWgt=          16           1           1
 AtmWgt=  15.9949146   1.0078250   1.0078250
 NucSpn=           0           1           1
 AtZEff=  -0.0000000  -0.0000000  -0.0000000
 NQMom=    0.0000000   0.0000000   0.0000000
 NMagM=    0.0000000   2.7928460   2.7928460
 AtZNuc=   8.0000000   1.0000000   1.0000000
 Leave Link  101 at Fri Feb  6 07:16:46 2026, MaxMem=  1048576000 cpu:               1.5 elap:               0.2
 (Enter /opt/Programs/Gaussian/16RevA.03//g16/l202.exe)
                          Input orientation:                          
 ---------------------------------------------------------------------
 Center     Atomic      Atomic             Coordinates (Angstroms)
 Number     Number       Type             X           Y           Z
 ---------------------------------------------------------------------
      1          8           0        0.000000    0.000000    0.000000
      2          1           0        0.000000    1.000000    0.800000
      3          1           0        0.000000   -1.000000    0.800000
 ---------------------------------------------------------------------
                    Distance matrix (angstroms):
                    1          2          3
     1  O    0.000000
     2  H    1.280625   0.000000
     3  H    1.280625   2.000000   0.000000
 Stoichiometry    H2O
 Framework group  C2V[C2(O),SGV(H2)]
 Deg. of freedom     2
 Full point group                 C2V     NOp   4
 Largest Abelian subgroup         C2V     NOp   4
 Largest concise Abelian subgroup C2      NOp   2
                         Standard orientation:                         
 ---------------------------------------------------------------------
 Center     Atomic      Atomic             Coordinates (Angstroms)
 Number     Number       Type             X           Y           Z
 ---------------------------------------------------------------------
      1          8           0       -0.000000    0.000000    0.160000
      2          1           0        0.000000    1.000000   -0.640000
      3          1           0       -0.000000   -1.000000   -0.640000
 ---------------------------------------------------------------------
 Rotational constants (GHZ):         441.1309105         250.7275522         159.8645957
 Leave Link  202 at Fri Feb  6 07:16:46 2026, MaxMem=  1048576000 cpu:               0.0 elap:               0.0
 (Enter /opt/Programs/Gaussian/16RevA.03//g16/l301.exe)
 Standard basis: STO-3G (5D, 7F)
 Ernie: Thresh=  0.10000D-02 Tol=  0.10000D-05 Strict=F.
 There are     4 symmetry adapted cartesian basis functions of A1  symmetry.
 There are     0 symmetry adapted cartesian basis functions of A2  symmetry.
 There are     1 symmetry adapted cartesian basis functions of B1  symmetry.
 There are     2 symmetry adapted cartesian basis functions of B2  symmetry.
 There are     4 symmetry adapted basis functions of A1  symmetry.
 There are     0 symmetry adapted basis functions of A2  symmetry.
 There are     1 symmetry adapted basis functions of B1  symmetry.
 There are     2 symmetry adapted basis functions of B2  symmetry.
     7 basis functions,    21 primitive gaussians,     7 cartesian basis functions
     5 alpha electrons        5 beta electrons
       nuclear repulsion energy         6.8760762643 Hartrees.
 IExCor=    0 DFT=F Ex=HF Corr=None ExCW=0 ScaHFX=  1.000000
 ScaDFX=  1.000000  1.000000  1.000000  1.000000 ScalE2=  1.000000  1.000000
 IRadAn=      5 IRanWt=     -1 IRanGd=            0 ICorTp=0 IEmpDi=  4
 NAtoms=    3 NActive=    3 NUniq=    2 SFac= 2.25D+00 NAtFMM=   60 NAOKFM=F Big=F
 Integral buffers will be    131072 words long.
 Raffenetti 1 integral format.
 Two-electron integral symmetry is turned on.
 Leave Link  301 at Fri Feb  6 07:16:46 2026, MaxMem=  1048576000 cpu:               0.2 elap:               0.0
 (Enter /opt/Programs/Gaussian/16RevA.03//g16/l302.exe)
 NPDir=0 NMtPBC=     1 NCelOv=     1 NCel=       1 NClECP=     1 NCelD=      1
         NCelK=      1 NCelE2=     1 NClLst=     1 CellRange=     0.0.
 One-electron integrals computed using PRISM.
 One-electron integral symmetry used in STVInt
 NBasis=     7 RedAO= T EigKep=  5.39D-01  NBF=     4     0     1     2
 NBsUse=     7 1.00D-06 EigRej= -1.00D+00 NBFU=     4     0     1     2
 Leave Link  302 at Fri Feb  6 07:16:47 2026, MaxMem=  1048576000 cpu:               0.6 elap:               0.1
 (Enter /opt/Programs/Gaussian/16RevA.03//g16/l303.exe)
 DipDrv:  MaxL=1.
 Leave Link  303 at Fri Feb  6 07:16:47 2026, MaxMem=  1048576000 cpu:               0.2 elap:               0.0
 (Enter /opt/Programs/Gaussian/16RevA.03//g16/l401.exe)
 ExpMin= 1.69D-01 ExpMax= 1.31D+02 ExpMxC= 1.31D+02 IAcc=3 IRadAn=         5 AccDes= 0.00D+00
 Harris functional with IExCor=  205 and IRadAn=       5 diagonalized for initial guess.
 HarFok:  IExCor=  205 AccDes= 0.00D+00 IRadAn=         5 IDoV= 1 UseB2=F ITyADJ=14
 ICtDFT=  3500011 ScaDFX=  1.000000  1.000000  1.000000  1.000000
 FoFCou: FMM=F IPFlag=           0 FMFlag=      100000 FMFlg1=           0
         NFxFlg=           0 DoJE=T BraDBF=F KetDBF=T FulRan=T
         wScrn=  0.000000 ICntrl=       500 IOpCl=  0 I1Cent=   200000004 NGrid=           0
         NMat0=    1 NMatS0=      1 NMatT0=    0 NMatD0=    1 NMtDS0=    0 NMtDT0=    0
 Petite list used in FoFCou.
 Harris En= -74.9440703612307    
 JPrj=0 DoOrth=F DoCkMO=F.
 Initial guess orbital symmetries:
       Occupied  (A1) (A1) (B2) (A1) (B1)
       Virtual   (A1) (B2)
 The electronic state of the initial guess is 1-A1.
 Leave Link  401 at Fri Feb  6 07:16:47 2026, MaxMem=  1048576000 cpu:               0.6 elap:               0.1
 (Enter /opt/Programs/Gaussian/16RevA.03//g16/l502.exe)
 Keep R1 ints in memory in symmetry-blocked form, NReq=1603608.
 FoFCou: FMM=F IPFlag=           0 FMFlag=           0 FMFlg1=           0
         NFxFlg=           0 DoJE=F BraDBF=F KetDBF=F FulRan=T
         wScrn=  0.000000 ICntrl=       600 IOpCl=  0 I1Cent=           0 NGrid=           0
         NMat0=    1 NMatS0=     28 NMatT0=    0 NMatD0=    1 NMtDS0=    0 NMtDT0=    0
 Petite list used in FoFCou.
 Closed shell SCF:
 Using DIIS extrapolation, IDIIS=  1040.
 NGot=  1048576000 LenX=  1048574105 LenY=  1048573223
 Requested convergence on RMS density matrix=1.00D-08 within 128 cycles.
 Requested convergence on MAX density matrix=1.00D-06.
 Requested convergence on             energy=1.00D-06.
 No special actions if energy rises.

 Cycle   1  Pass 1  IDiag  1:
 E= -74.7777898185344    
 DIIS: error= 7.68D-02 at cycle   1 NSaved=   1.
 NSaved= 1 IEnMin= 1 EnMin= -74.7777898185344     IErMin= 1 ErrMin= 7.68D-02
 ErrMax= 7.68D-02  0.00D+00 EMaxC= 1.00D-01 BMatC= 4.16D-02 BMatP= 4.16D-02
 IDIUse=3 WtCom= 2.32D-01 WtEn= 7.68D-01
 Coeff-Com:  0.100D+01
 Coeff-En:   0.100D+01
 Coeff:      0.100D+01
 Gap=     0.589 Goal=   None    Shift=    0.000
 GapD=    0.589 DampG=2.000 DampE=0.500 DampFc=1.0000 IDamp=-1.
 RMSDP=5.50D-02 MaxDP=1.87D-01              OVMax= 0.00D+00

 Cycle   2  Pass 1  IDiag  1:
 E= -74.8401737341931     Delta-E=       -0.062383915659 Rises=F Damp=F
 DIIS: error= 2.67D-02 at cycle   2 NSaved=   2.
 NSaved= 2 IEnMin= 2 EnMin= -74.8401737341931     IErMin= 2 ErrMin= 2.67D-02
 ErrMax= 2.67D-02  0.00D+00 EMaxC= 1.00D-01 BMatC= 5.63D-03 BMatP= 4.16D-02
 IDIUse=3 WtCom= 7.33D-01 WtEn= 2.67D-01
 Coeff-Com:  0.265D+00 0.735D+00
 Coeff-En:   0.000D+00 0.100D+01
 Coeff:      0.194D+00 0.806D+00
 Gap=     0.756 Goal=   None    Shift=    0.000
 RMSDP=1.55D-02 MaxDP=5.37D-02 DE=-6.24D-02 OVMax= 0.00D+00

 Cycle   3  Pass 1  IDiag  1:
 E= -74.8491831910977     Delta-E=       -0.009009456905 Rises=F Damp=F
 DIIS: error= 3.02D-03 at cycle   3 NSaved=   3.
 NSaved= 3 IEnMin= 3 EnMin= -74.8491831910977     IErMin= 3 ErrMin= 3.02D-03
 ErrMax= 3.02D-03  0.00D+00 EMaxC= 1.00D-01 BMatC= 5.39D-05 BMatP= 5.63D-03
 IDIUse=3 WtCom= 9.70D-01 WtEn= 3.02D-02
 Coeff-Com: -0.191D-01 0.433D-01 0.976D+00
 Coeff-En:   0.000D+00 0.000D+00 0.100D+01
 Coeff:     -0.186D-01 0.420D-01 0.977D+00
 Gap=     0.747 Goal=   None    Shift=    0.000
 RMSDP=1.46D-03 MaxDP=5.45D-03 DE=-9.01D-03 OVMax= 0.00D+00

 Cycle   4  Pass 1  IDiag  1:
 E= -74.8492746777835     Delta-E=       -0.000091486686 Rises=F Damp=F
 DIIS: error= 1.23D-04 at cycle   4 NSaved=   4.
 NSaved= 4 IEnMin= 4 EnMin= -74.8492746777835     IErMin= 4 ErrMin= 1.23D-04
 ErrMax= 1.23D-04  0.00D+00 EMaxC= 1.00D-01 BMatC= 2.02D-07 BMatP= 5.39D-05
 IDIUse=3 WtCom= 9.99D-01 WtEn= 1.23D-03
 Coeff-Com:  0.562D-02-0.266D-01-0.415D+00 0.144D+01
 Coeff-En:   0.000D+00 0.000D+00 0.000D+00 0.100D+01
 Coeff:      0.561D-02-0.266D-01-0.415D+00 0.144D+01
 Gap=     0.747 Goal=   None    Shift=    0.000
 RMSDP=1.68D-04 MaxDP=6.11D-04 DE=-9.15D-05 OVMax= 0.00D+00

 Cycle   5  Pass 1  IDiag  1:
 E= -74.8492755080306     Delta-E=       -0.000000830247 Rises=F Damp=F
 DIIS: error= 4.69D-05 at cycle   5 NSaved=   5.
 NSaved= 5 IEnMin= 5 EnMin= -74.8492755080306     IErMin= 5 ErrMin= 4.69D-05
 ErrMax= 4.69D-05  0.00D+00 EMaxC= 1.00D-01 BMatC= 2.06D-08 BMatP= 2.02D-07
 IDIUse=1 WtCom= 1.00D+00 WtEn= 0.00D+00
 Coeff-Com: -0.385D-02 0.207D-01 0.301D+00-0.125D+01 0.193D+01
 Coeff:     -0.385D-02 0.207D-01 0.301D+00-0.125D+01 0.193D+01
 Gap=     0.747 Goal=   None    Shift=    0.000
 RMSDP=9.25D-05 MaxDP=3.15D-04 DE=-8.30D-07 OVMax= 0.00D+00

 Cycle   6  Pass 1  IDiag  1:
 E= -74.8492756158990     Delta-E=       -0.000000107868 Rises=F Damp=F
 DIIS: error= 3.28D-06 at cycle   6 NSaved=   6.
 NSaved= 6 IEnMin= 6 EnMin= -74.8492756158990     IErMin= 6 ErrMin= 3.28D-06
 ErrMax= 3.28D-06  0.00D+00 EMaxC= 1.00D-01 BMatC= 6.67D-11 BMatP= 2.06D-08
 IDIUse=1 WtCom= 1.00D+00 WtEn= 0.00D+00
 Coeff-Com: -0.374D-06-0.119D-04-0.743D-03 0.102D-01-0.584D-01 0.105D+01
 Coeff:     -0.374D-06-0.119D-04-0.743D-03 0.102D-01-0.584D-01 0.105D+01
 Gap=     0.747 Goal=   None    Shift=    0.000
 RMSDP=3.18D-06 MaxDP=1.05D-05 DE=-1.08D-07 OVMax= 0.00D+00

 Cycle   7  Pass 1  IDiag  1:
 E= -74.8492756160694     Delta-E=       -0.000000000170 Rises=F Damp=F
 DIIS: error= 9.20D-10 at cycle   7 NSaved=   7.
 NSaved= 7 IEnMin= 7 EnMin= -74.8492756160694     IErMin= 7 ErrMin= 9.20D-10
 ErrMax= 9.20D-10  0.00D+00 EMaxC= 1.00D-01 BMatC= 1.30D-17 BMatP= 6.67D-11
 IDIUse=1 WtCom= 1.00D+00 WtEn= 0.00D+00
 Coeff-Com:  0.542D-09-0.151D-08-0.433D-05 0.607D-04-0.401D-03 0.716D-02
 Coeff-Com:  0.993D+00
 Coeff:      0.542D-09-0.151D-08-0.433D-05 0.607D-04-0.401D-03 0.716D-02
 Coeff:      0.993D+00
 Gap=     0.747 Goal=   None    Shift=    0.000
 RMSDP=2.26D-09 MaxDP=8.20D-09 DE=-1.70D-10 OVMax= 0.00D+00

 SCF Done:  E(RHF) =  -74.8492756161     A.U. after    7 cycles
            NFock=  7  Conv=0.23D-08     -V/T= 2.0089
 KE= 7.419114361683D+01 PE=-1.921675726417D+02 EE= 3.625107714451D+01
 Leave Link  502 at Fri Feb  6 07:16:47 2026, MaxMem=  1048576000 cpu:               0.5 elap:               0.1
 (Enter /opt/Programs/Gaussian/16RevA.03//g16/l801.exe)
 Windowed orbitals will be sorted by symmetry type.
 ExpMin= 1.69D-01 ExpMax= 1.31D+02 ExpMxC= 1.31D+02 IAcc=3 IRadAn=         5 AccDes= 0.00D+00
 HarFok:  IExCor=  205 AccDes= 0.00D+00 IRadAn=         5 IDoV=-2 UseB2=F ITyADJ=14
 ICtDFT= 12500011 ScaDFX=  1.000000  1.000000  1.000000  1.000000
 Largest valence mixing into a core orbital is  6.34D-05
 Largest core mixing into a valence orbital is  4.96D-05
 Range of M.O.s used for correlation:     2     7
 NBasis=     7 NAE=     5 NBE=     5 NFC=     1 NFV=     0
 NROrb=      6 NOA=     4 NOB=     4 NVA=     2 NVB=     2
 Leave Link  801 at Fri Feb  6 07:16:47 2026, MaxMem=  1048576000 cpu:               0.3 elap:               0.0
 (Enter /opt/Programs/Gaussian/16RevA.03//g16/l804.exe)
 Closed-shell transformation, MDV=  1048576000 ITran=4 ISComp=2.
 Unit  1 TFree=          3108 TCopy=        114929.
 Semi-Direct transformation.
 ModeAB=           2 MOrb=             4 LenV=    1048456395
 LASXX=           45 LTotXX=          45 LenRXX=          45
 LTotAB=          99 MaxLAS=         672 LenRXY=         672
 NonZer=         816 LenScr=      785920 LnRSAI=           0
 LnScr1=           0 LExtra=           0 Total=       786637
 MaxDsk=          -1 SrtSym=           F ITran=            4
 DoSDTr:  NPSUse=  8
 JobTyp=0 Pass  1:  I=   1 to   4.
 (rs|ai) integrals will be sorted in core.
 Complete sort for first half transformation.
 First half transformation complete.
 Complete sort for second half transformation.
 Second half transformation complete.
 Spin components of T(2) and E(2):
     alpha-alpha T2 =       0.1461509915D-02 E2=     -0.2591353139D-02
     alpha-beta  T2 =       0.3791907997D-01 E2=     -0.6736232464D-01
     beta-beta   T2 =       0.1461509915D-02 E2=     -0.2591353139D-02
 ANorm=    0.1020216693D+01
 E2 =    -0.7254503092D-01 EUMP2 =    -0.74921820646987D+02
 Leave Link  804 at Fri Feb  6 07:16:47 2026, MaxMem=  1048576000 cpu:               0.3 elap:               0.0
 (Enter /opt/Programs/Gaussian/16RevA.03//g16/l913.exe)
 CIDS:  MDV=  1048576000.
 Frozen-core window:  NFC=   1 NFV=   0.
 IFCWin=0 IBDFC=1 NFBD=     0     0 NFCmp=     0     0 NFFFC=     0     0
 Using DD3R+UMP44R for 1st iteration.
 Using DD4RQ for 2nd and later iterations.
 Keep R2 and R3 ints in memory in symmetry-blocked form, NReq=1605984.
 FoFCou: FMM=F IPFlag=           0 FMFlag=           0 FMFlg1=           0
         NFxFlg=           0 DoJE=F BraDBF=F KetDBF=F FulRan=T
         wScrn=  0.000000 ICntrl=       600 IOpCl=  0 I1Cent=           0 NGrid=           0
         NMat0=    1 NMatS0=     28 NMatT0=    0 NMatD0=    1 NMtDS0=    0 NMtDT0=    0
 Petite list used in FoFCou.
 CIDS: In Core Option IDoMem=           1.
 Coupled Cluster theory with single and double substitutions
 ===========================================================
 Iterations=  50 Convergence= 0.100D-06
 Produce multiple copies of IABC intergrals
 Iteration Nr.   1
 **********************
 DD1Dir will call FoFMem   1 times, MxPair=        20
 NAB=    10 NAA=     0 NBB=     0.
 MP4(R+Q)=  0.15196728D-02
 Maximum subspace dimension=  5
 A-vector RMS=  2.2818497D-02 Max=  2.5026564D-02 conv= 1.00D-05.
 RLE energy=       -0.1006369793
 E3=       -0.21810602D-01        EUMP3=      -0.74943631249D+02
 E4(DQ)=   -0.72803482D-02        UMP4(DQ)=   -0.74950911597D+02
 E4(SDQ)=  -0.76445159D-02        UMP4(SDQ)=  -0.74951275765D+02
 VARIATIONAL ENERGIES WITH THE FIRST-ORDER WAVEFUNCTION:
 DE(Corr)= -0.92795385E-01 E(Corr)=     -74.942071001    
 NORM(A)=   0.10406787D+01
 Iteration Nr.   2
 **********************
 DD1Dir will call FoFMem   1 times, MxPair=        20
 NAB=    10 NAA=     0 NBB=     0.
 A-vector RMS=  1.1378041D-02 Max=  9.1280702D-03 conv= 1.00D-05.
 RLE energy=       -0.1068242640
 DE(Corr)= -0.10349065     E(CORR)=     -74.952766266     Delta=-1.07D-02
 NORM(A)=   0.10481585D+01
 Iteration Nr.   3
 **********************
 DD1Dir will call FoFMem   1 times, MxPair=        20
 NAB=    10 NAA=     0 NBB=     0.
 A-vector RMS=  2.3064683D-03 Max=  2.6522387D-03 conv= 1.00D-05.
 RLE energy=       -0.1076056798
 DE(Corr)= -0.10710935     E(CORR)=     -74.956384967     Delta=-3.62D-03
 NORM(A)=   0.10492804D+01
 Iteration Nr.   4
 **********************
 DD1Dir will call FoFMem   1 times, MxPair=        20
 NAB=    10 NAA=     0 NBB=     0.
 A-vector RMS=  1.0248288D-03 Max=  1.2203277D-03 conv= 1.00D-05.
 RLE energy=       -0.1075053899
 DE(Corr)= -0.10751387     E(CORR)=     -74.956789487     Delta=-4.05D-04
 NORM(A)=   0.10493948D+01
 Iteration Nr.   5
 **********************
 DD1Dir will call FoFMem   1 times, MxPair=        20
 NAB=    10 NAA=     0 NBB=     0.
 A-vector RMS=  1.4063857D-04 Max=  1.3726032D-04 conv= 1.00D-05.
 RLE energy=       -0.1075540070
 DE(Corr)= -0.10752726     E(CORR)=     -74.956802875     Delta=-1.34D-05
 NORM(A)=   0.10494448D+01
 Iteration Nr.   6
 **********************
 DD1Dir will call FoFMem   1 times, MxPair=        20
 NAB=    10 NAA=     0 NBB=     0.
 A-vector RMS=  5.9456011D-05 Max=  4.0437483D-05 conv= 1.00D-05.
 RLE energy=       -0.1075353283
 DE(Corr)= -0.10754577     E(CORR)=     -74.956821385     Delta=-1.85D-05
 NORM(A)=   0.10494208D+01
 Iteration Nr.   7
 **********************
 DD1Dir will call FoFMem   1 times, MxPair=        20
 NAB=    10 NAA=     0 NBB=     0.
 A-vector RMS=  1.2769076D-05 Max=  9.5267430D-06 conv= 1.00D-05.
 RLE energy=       -0.1075415256
 DE(Corr)= -0.10753899     E(CORR)=     -74.956814607     Delta= 6.78D-06
 NORM(A)=   0.10494267D+01
 Iteration Nr.   8
 **********************
 DD1Dir will call FoFMem   1 times, MxPair=        20
 NAB=    10 NAA=     0 NBB=     0.
 A-vector RMS=  4.7329484D-06 Max=  4.3127673D-06 conv= 1.00D-05.
 RLE energy=       -0.1075417046
 DE(Corr)= -0.10754151     E(CORR)=     -74.956817124     Delta=-2.52D-06
 NORM(A)=   0.10494268D+01
 Iteration Nr.   9
 **********************
 DD1Dir will call FoFMem   1 times, MxPair=        20
 NAB=    10 NAA=     0 NBB=     0.
 A-vector RMS=  1.0771727D-06 Max=  1.2998623D-06 conv= 1.00D-05.
 RLE energy=       -0.1075416089
 DE(Corr)= -0.10754168     E(CORR)=     -74.956817292     Delta=-1.68D-07
 NORM(A)=   0.10494266D+01
 Iteration Nr.  10
 **********************
 DD1Dir will call FoFMem   1 times, MxPair=        20
 NAB=    10 NAA=     0 NBB=     0.
 A-vector RMS=  8.9390570D-08 Max=  1.3040867D-07 conv= 1.00D-05.
 RLE energy=       -0.1075415362
 DE(Corr)= -0.10754157     E(CORR)=     -74.956817188     Delta= 1.04D-07
 NORM(A)=   0.10494265D+01
 Iteration Nr.  11
 **********************
 DD1Dir will call FoFMem   1 times, MxPair=        20
 NAB=    10 NAA=     0 NBB=     0.
 A-vector RMS=  1.4728385D-08 Max=  2.9973188D-08 conv= 1.00D-05.
 RLE energy=       -0.1075415533
 DE(Corr)= -0.10754155     E(CORR)=     -74.956817162     Delta= 2.63D-08
 NORM(A)=   0.10494265D+01
 CI/CC converged in   11 iterations to DelEn= 2.63D-08 Conv= 1.00D-07 ErrA1= 1.47D-08 Conv= 1.00D-05
 Wavefunction amplitudes converged. E(Corr)=     -74.956817162    
 Dominant configurations:
 ***********************
 Spin Case        I    J    A    B          Value
   ABAB           4    4    6    6      -0.135961D+00
   ABAB           3    3    7    7      -0.137924D+00
   ABAB           4    3    6    7      -0.108942D+00
   ABAB           3    4    7    6      -0.108942D+00
 Largest amplitude= 1.38D-01
 Discarding MO integrals.
 Leave Link  913 at Fri Feb  6 07:16:47 2026, MaxMem=  1048576000 cpu:               0.6 elap:               0.1
 (Enter /opt/Programs/Gaussian/16RevA.03//g16/l601.exe)
 Copying SCF densities to generalized density rwf, IOpCl= 0 IROHF=0.

 **********************************************************************

            Population analysis using the SCF density.

 **********************************************************************

 Orbital symmetries:
       Occupied  (A1) (A1) (B2) (A1) (B1)
       Virtual   (A1) (B2)
 The electronic state is 1-A1.
 Alpha  occ. eigenvalues --  -20.29031  -1.16765  -0.47451  -0.41216  -0.39250
 Alpha virt. eigenvalues --    0.35433   0.43532
          Condensed to atoms (all electrons):
               1          2          3
     1  O    7.767199   0.194860   0.194860
     2  H    0.194860   0.739489  -0.012808
     3  H    0.194860  -0.012808   0.739489
 Mulliken charges:
               1
     1  O   -0.156918
     2  H    0.078459
     3  H    0.078459
 Sum of Mulliken charges =   0.00000
 Mulliken charges with hydrogens summed into heavy atoms:
               1
     1  O    0.000000
 Electronic spatial extent (au):  <R**2>=             22.6645
 Charge=              0.0000 electrons
 Dipole moment (field-independent basis, Debye):
    X=             -0.0000    Y=             -0.0000    Z=             -1.2942  Tot=              1.2942
 Quadrupole moment (field-independent basis, Debye-Ang):
   XX=             -6.3134   YY=             -4.3087   ZZ=             -5.3375
   XY=              0.0000   XZ=              0.0000   YZ=              0.0000
 Traceless Quadrupole moment (field-independent basis, Debye-Ang):
   XX=             -0.9935   YY=              1.0112   ZZ=             -0.0176
   XY=              0.0000   XZ=              0.0000   YZ=              0.0000
 Octapole moment (field-independent basis, Debye-Ang**2):
  XXX=              0.0000  YYY=              0.0000  ZZZ=              0.2639  XYY=             -0.0000
  XXY=             -0.0000  XXZ=              0.1783  XZZ=              0.0000  YZZ=              0.0000
  YYZ=             -0.7780  XYZ=             -0.0000
 Hexadecapole moment (field-independent basis, Debye-Ang**3):
 XXXX=             -3.4841 YYYY=             -9.9932 ZZZZ=             -6.9930 XXXY=             -0.0000
 XXXZ=             -0.0000 YYYX=             -0.0000 YYYZ=             -0.0000 ZZZX=             -0.0000
 ZZZY=              0.0000 XXYY=             -2.5686 XXZZ=             -1.8247 YYZZ=             -2.3617
 XXYZ=              0.0000 YYXZ=              0.0000 ZZXY=             -0.0000
 N-N= 6.876076264268D+00 E-N=-1.921675726519D+02  KE= 7.419114361683D+01
 Symmetry A1   KE= 6.636078692031D+01
 Symmetry A2   KE= 0.000000000000D+00
 Symmetry B1   KE= 5.057462452019D+00
 Symmetry B2   KE= 2.772894244509D+00
 Leave Link  601 at Fri Feb  6 07:16:47 2026, MaxMem=  1048576000 cpu:               0.2 elap:               0.0
 (Enter /opt/Programs/Gaussian/16RevA.03//g16/l9999.exe)
 1\1\GINC-CHOU\SP\RCCSD-FC\STO-3G\H2O1\RTCHOU\06-Feb-2026\0\\#p CCSD/ST
 O-3G\\Generated by ChouChem Test Suite\\0,1\O,0,0.,0.,0.\H,0,0.,1.,0.8
 \H,0,0.,-1.,0.8\\Version=ES64L-G16RevA.03\State=1-A1\HF=-74.8492756\MP
 2=-74.9218206\MP3=-74.9436312\MP4D=-74.9524313\MP4DQ=-74.9509116\MP4SD
 Q=-74.9512758\CCSD=-74.9568172\RMSD=2.259e-09\PG=C02V [C2(O1),SGV(H2)]
 \\@


 THE BEST WAY TO CONVINCE A FOOL THAT HE IS WRONG 
 IS TO LET HIM HAVE HIS OWN WAY.

                                         JOSH BILLINGS
 Job cpu time:       0 days  0 hours  0 minutes  5.5 seconds.
 Elapsed time:       0 days  0 hours  0 minutes  0.7 seconds.
 File lengths (MBytes):  RWF=     13 Int=      0 D2E=      0 Chk=      1 Scr=      1
 Normal termination of Gaussian 16 at Fri Feb  6 07:16:47 2026.
