 Entering Gaussian System, Link 0=g16
 Input=test_g16/H2O_STO-3G_Q1_UCI.gjf
 Output=test_g16/H2O_STO-3G_Q1_UCI.log
 Initial command:
 /opt/Programs/Gaussian/16RevA.03//g16/l1.exe "/opt/Programs/Gaussian/16RevA.03/g16/scratch/Gau-246443.inp" -scrdir="/opt/Programs/Gaussian/16RevA.03/g16/scratch/"
 Entering Link 1 = /opt/Programs/Gaussian/16RevA.03//g16/l1.exe PID=    246444.
  
 Copyright (c) 1988,1990,1992,1993,1995,1998,2003,2009,2016,
            Gaussian, Inc.  All Rights Reserved.
  
 This is part of the Gaussian(R) 16 program.  It is based on
 the Gaussian(R) 09 system (copyright 2009, Gaussian, Inc.),
 the Gaussian(R) 03 system (copyright 2003, Gaussian, Inc.),
 the Gaussian(R) 98 system (copyright 1998, Gaussian, Inc.),
 the Gaussian(R) 94 system (copyright 1995, Gaussian, Inc.),
 the Gaussian 92(TM) system (copyright 1992, Gaussian, Inc.),
 the Gaussian 90(TM) system (copyright 1990, Gaussian, Inc.),
 the Gaussian 88(TM) system (copyright 1988, Gaussian, Inc.),
 the Gaussian 86(TM) system (copyright 1986, Carnegie Mellon
 University), and the Gaussian 82(TM) system (copyright 1983,
 Carnegie Mellon University). Gaussian is a federally registered
 trademark of Gaussian, Inc.
  
 This software contains proprietary and confidential information,
 including trade secrets, belonging to Gaussian, Inc.
  
 This software is provided under written license and may be
 used, copied, transmitted, or stored only in accord with that
 written license.
  
 The following legend is applicable only to US Government
 contracts under FAR:
  
                    RESTRICTED RIGHTS LEGEND
  
 Use, reproduction and disclosure by the US Government is
 subject to restrictions as set forth in subparagraphs (a)
 and (c) of the Commercial Computer Software - Restricted
 Rights clause in FAR 52.227-19.
  
 Gaussian, Inc.
 340 Quinnipiac St., Bldg. 40, Wallingford CT 06492
  
  
 ---------------------------------------------------------------
 Warning -- This program may not be used in any manner that
 competes with the business of Gaussian, Inc. or will provide
 assistance to any competitor of Gaussian, Inc.  The licensee
 of this program is prohibited from giving any competitor of
 Gaussian, Inc. access to this program.  By using this program,
 the user acknowledges that Gaussian, Inc. is engaged in the
 business of creating and licensing software in the field of
 computational chemistry and represents and warrants to the
 licensee that it is not a competitor of Gaussian, Inc. and that
 it will not use this program in any manner prohibited above.
 ---------------------------------------------------------------
  

 Cite this work as:
 Gaussian 16, Revision A.03,
 M. J. Frisch, G. W. Trucks, H. B. Schlegel, G. E. Scuseria, 
 M. A. Robb, J. R. Cheeseman, G. Scalmani, V. Barone, 
 G. A. Petersson, H. Nakatsuji, X. Li, M. Caricato, A. V. Marenich, 
 J. Bloino, B. G. Janesko, R. Gomperts, B. Mennucci, H. P. Hratchian, 
 J. V. Ortiz, A. F. Izmaylov, J. L. Sonnenberg, D. Williams-Young, 
 F. Ding, F. Lipparini, F. Egidi, J. Goings, B. Peng, A. Petrone, 
 T. Henderson, D. Ranasinghe, V. G. Zakrzewski, J. Gao, N. Rega, 
 G. Zheng, W. Liang, M. Hada, M. Ehara, K. Toyota, R. Fukuda, 
 J. Hasegawa, M. Ishida, T. Nakajima, Y. Honda, O. Kitao, H. Nakai, 
 T. Vreven, K. Throssell, J. A. Montgomery, Jr., J. E. Peralta, 
 F. Ogliaro, M. J. Bearpark, J. J. Heyd, E. N. Brothers, K. N. Kudin, 
 V. N. Staroverov, T. A. Keith, R. Kobayashi, J. Normand, 
 K. Raghavachari, A. P. Rendell, J. C. Burant, S. S. Iyengar, 
 J. Tomasi, M. Cossi, J. M. Millam, M. Klene, C. Adamo, R. Cammi, 
 J. W. Ochterski, R. L. Martin, K. Morokuma, O. Farkas, 
 J. B. Foresman, and D. J. Fox, Gaussian, Inc., Wallingford CT, 2016.
 
 ******************************************
 Gaussian 16:  ES64L-G16RevA.03 25-Dec-2016
                 6-Feb-2026 
 ******************************************
 %Mem=8000MB
 %NProcShared=8
 Will use up to    8 processors via shared memory.
 --------------
 #p CISD/STO-3G
 --------------
 1/38=1,172=1/1;
 2/12=2,17=6,18=5,40=1/2;
 3/6=3,11=9,25=1,30=1/1,2,3;
 4//1;
 5/5=2,38=5/2;
 8/6=3,9=120000,10=1/1,4;
 9//13;
 6/7=2,8=2,9=2,10=2/1;
 99/5=1,9=1/99;
 Leave Link    1 at Fri Feb  6 07:16:50 2026, MaxMem=  1048576000 cpu:               0.2 elap:               0.0
 (Enter /opt/Programs/Gaussian/16RevA.03//g16/l101.exe)
 --------------------------------
 Generated by ChouChem Test Suite
 --------------------------------
 Symbolic Z-matrix:
 Charge =  1 Multiplicity = 2
 O                     0.        0.        0. 
 H                     0.        1.        0.8 
 H                     0.       -1.        0.8 
 
 ITRead=  0  0  0
 MicOpt= -1 -1 -1
 NAtoms=      3 NQM=        3 NQMF=       0 NMMI=      0 NMMIF=      0
                NMic=       0 NMicF=      0.
                    Isotopes and Nuclear Properties:
 (Nuclear quadrupole moments (NQMom) in fm**2, nuclear magnetic moments (NMagM)
  in nuclear magnetons)

  Atom         1           2           3
 IAtWgt=          16           1           1
 AtmWgt=  15.9949146   1.0078250   1.0078250
 NucSpn=           0           1           1
 AtZEff=  -0.0000000  -0.0000000  -0.0000000
 NQMom=    0.0000000   0.0000000   0.0000000
 NMagM=    0.0000000   2.7928460   2.7928460
 AtZNuc=   8.0000000   1.0000000   1.0000000
 Leave Link  101 at Fri Feb  6 07:16:50 2026, MaxMem=  1048576000 cpu:               1.1 elap:               0.1
 (Enter /opt/Programs/Gaussian/16RevA.03//g16/l202.exe)
                          Input orientation:                          
 ---------------------------------------------------------------------
 Center     Atomic      Atomic             Coordinates (Angstroms)
 Number     Number       Type             X           Y           Z
 ---------------------------------------------------------------------
      1          8           0        0.000000    0.000000    0.000000
      2          1           0        0.000000    1.000000    0.800000
      3          1           0        0.000000   -1.000000    0.800000
 ---------------------------------------------------------------------
                    Distance matrix (angstroms):
                    1          2          3
     1  O    0.000000
     2  H    1.280625   0.000000
     3  H    1.280625   2.000000   0.000000
 Stoichiometry    H2O(1+,2)
 Framework group  C2V[C2(O),SGV(H2)]
 Deg. of freedom     2
 Full point group                 C2V     NOp   4
 Largest Abelian subgroup         C2V     NOp   4
 Largest concise Abelian subgroup C2      NOp   2
                         Standard orientation:                         
 ---------------------------------------------------------------------
 Center     Atomic      Atomic             Coordinates (Angstroms)
 Number     Number       Type             X           Y           Z
 ---------------------------------------------------------------------
      1          8           0       -0.000000    0.000000    0.160000
      2          1           0        0.000000    1.000000   -0.640000
      3          1           0       -0.000000   -1.000000   -0.640000
 ---------------------------------------------------------------------
 Rotational constants (GHZ):         441.1309105         250.7275522         159.8645957
 Leave Link  202 at Fri Feb  6 07:16:50 2026, MaxMem=  1048576000 cpu:               0.0 elap:               0.0
 (Enter /opt/Programs/Gaussian/16RevA.03//g16/l301.exe)
 Standard basis: STO-3G (5D, 7F)
 Ernie: Thresh=  0.10000D-02 Tol=  0.10000D-05 Strict=F.
 There are     4 symmetry adapted cartesian basis functions of A1  symmetry.
 There are     0 symmetry adapted cartesian basis functions of A2  symmetry.
 There are     1 symmetry adapted cartesian basis functions of B1  symmetry.
 There are     2 symmetry adapted cartesian basis functions of B2  symmetry.
 There are     4 symmetry adapted basis functions of A1  symmetry.
 There are     0 symmetry adapted basis functions of A2  symmetry.
 There are     1 symmetry adapted basis functions of B1  symmetry.
 There are     2 symmetry adapted basis functions of B2  symmetry.
     7 basis functions,    21 primitive gaussians,     7 cartesian basis functions
     5 alpha electrons        4 beta electrons
       nuclear repulsion energy         6.8760762643 Hartrees.
 IExCor=    0 DFT=F Ex=HF Corr=None ExCW=0 ScaHFX=  1.000000
 ScaDFX=  1.000000  1.000000  1.000000  1.000000 ScalE2=  1.000000  1.000000
 IRadAn=      5 IRanWt=     -1 IRanGd=            0 ICorTp=0 IEmpDi=  4
 NAtoms=    3 NActive=    3 NUniq=    2 SFac= 2.25D+00 NAtFMM=   60 NAOKFM=F Big=F
 Integral buffers will be    131072 words long.
 Raffenetti 2 integral format.
 Two-electron integral symmetry is turned on.
 Leave Link  301 at Fri Feb  6 07:16:50 2026, MaxMem=  1048576000 cpu:               0.3 elap:               0.0
 (Enter /opt/Programs/Gaussian/16RevA.03//g16/l302.exe)
 NPDir=0 NMtPBC=     1 NCelOv=     1 NCel=       1 NClECP=     1 NCelD=      1
         NCelK=      1 NCelE2=     1 NClLst=     1 CellRange=     0.0.
 One-electron integrals computed using PRISM.
 One-electron integral symmetry used in STVInt
 NBasis=     7 RedAO= T EigKep=  5.39D-01  NBF=     4     0     1     2
 NBsUse=     7 1.00D-06 EigRej= -1.00D+00 NBFU=     4     0     1     2
 Leave Link  302 at Fri Feb  6 07:16:50 2026, MaxMem=  1048576000 cpu:               0.5 elap:               0.1
 (Enter /opt/Programs/Gaussian/16RevA.03//g16/l303.exe)
 DipDrv:  MaxL=1.
 Leave Link  303 at Fri Feb  6 07:16:50 2026, MaxMem=  1048576000 cpu:               0.2 elap:               0.0
 (Enter /opt/Programs/Gaussian/16RevA.03//g16/l401.exe)
 ExpMin= 1.69D-01 ExpMax= 1.31D+02 ExpMxC= 1.31D+02 IAcc=3 IRadAn=         5 AccDes= 0.00D+00
 Harris functional with IExCor=  205 and IRadAn=       5 diagonalized for initial guess.
 HarFok:  IExCor=  205 AccDes= 0.00D+00 IRadAn=         5 IDoV= 1 UseB2=F ITyADJ=14
 ICtDFT=  3500011 ScaDFX=  1.000000  1.000000  1.000000  1.000000
 FoFCou: FMM=F IPFlag=           0 FMFlag=      100000 FMFlg1=           0
         NFxFlg=           0 DoJE=T BraDBF=F KetDBF=T FulRan=T
         wScrn=  0.000000 ICntrl=       500 IOpCl=  0 I1Cent=   200000004 NGrid=           0
         NMat0=    1 NMatS0=      1 NMatT0=    0 NMatD0=    1 NMtDS0=    0 NMtDT0=    0
 Petite list used in FoFCou.
 Harris En= -74.6624002010979    
 JPrj=0 DoOrth=F DoCkMO=F.
 Initial guess orbital symmetries:
 Alpha Orbitals:
       Occupied  (A1) (A1) (B2) (A1) (B1)
       Virtual   (A1) (B2)
 Beta  Orbitals:
       Occupied  (A1) (A1) (B2) (A1)
       Virtual   (B1) (A1) (B2)
 The electronic state of the initial guess is 2-B1.
 Initial guess <Sx>= 0.0000 <Sy>= 0.0000 <Sz>= 0.5000 <S**2>= 0.7500 S= 0.5000
 Leave Link  401 at Fri Feb  6 07:16:50 2026, MaxMem=  1048576000 cpu:               0.6 elap:               0.1
 (Enter /opt/Programs/Gaussian/16RevA.03//g16/l502.exe)
 Keep R1 and R2 ints in memory in symmetry-blocked form, NReq=1603608.
 FoFCou: FMM=F IPFlag=           0 FMFlag=           0 FMFlg1=           0
         NFxFlg=           0 DoJE=F BraDBF=F KetDBF=F FulRan=T
         wScrn=  0.000000 ICntrl=       600 IOpCl=  0 I1Cent=           0 NGrid=           0
         NMat0=    1 NMatS0=     28 NMatT0=    0 NMatD0=    1 NMtDS0=    0 NMtDT0=    0
 Petite list used in FoFCou.
 UHF open shell SCF:
 Using DIIS extrapolation, IDIIS=  1040.
 NGot=  1048576000 LenX=  1048573951 LenY=  1048573069
 Requested convergence on RMS density matrix=1.00D-08 within 128 cycles.
 Requested convergence on MAX density matrix=1.00D-06.
 Requested convergence on             energy=1.00D-06.
 No special actions if energy rises.

 Cycle   1  Pass 1  IDiag  1:
 E= -74.5809213246350    
 DIIS: error= 2.86D-02 at cycle   1 NSaved=   1.
 NSaved= 1 IEnMin= 1 EnMin= -74.5809213246350     IErMin= 1 ErrMin= 2.86D-02
 ErrMax= 2.86D-02  0.00D+00 EMaxC= 1.00D-01 BMatC= 3.51D-02 BMatP= 3.51D-02
 IDIUse=3 WtCom= 7.14D-01 WtEn= 2.86D-01
 Coeff-Com:  0.100D+01
 Coeff-En:   0.100D+01
 Coeff:      0.100D+01
 Gap=     0.844 Goal=   None    Shift=    0.000
 Gap=     0.730 Goal=   None    Shift=    0.000
 GapD=    0.730 DampG=2.000 DampE=0.500 DampFc=1.0000 IDamp=-1.
 RMSDP=1.87D-02 MaxDP=6.94D-02              OVMax= 0.00D+00

 Cycle   2  Pass 1  IDiag  1:
 E= -74.5919172474431     Delta-E=       -0.010995922808 Rises=F Damp=F
 DIIS: error= 1.38D-02 at cycle   2 NSaved=   2.
 NSaved= 2 IEnMin= 2 EnMin= -74.5919172474431     IErMin= 2 ErrMin= 1.38D-02
 ErrMax= 1.38D-02  0.00D+00 EMaxC= 1.00D-01 BMatC= 2.41D-03 BMatP= 3.51D-02
 IDIUse=3 WtCom= 8.62D-01 WtEn= 1.38D-01
 Coeff-Com:  0.132D+00 0.868D+00
 Coeff-En:   0.000D+00 0.100D+01
 Coeff:      0.114D+00 0.886D+00
 Gap=     0.820 Goal=   None    Shift=    0.000
 Gap=     0.758 Goal=   None    Shift=    0.000
 RMSDP=5.09D-03 MaxDP=2.95D-02 DE=-1.10D-02 OVMax= 0.00D+00

 Cycle   3  Pass 1  IDiag  1:
 E= -74.5933538587396     Delta-E=       -0.001436611296 Rises=F Damp=F
 DIIS: error= 5.33D-03 at cycle   3 NSaved=   3.
 NSaved= 3 IEnMin= 3 EnMin= -74.5933538587396     IErMin= 3 ErrMin= 5.33D-03
 ErrMax= 5.33D-03  0.00D+00 EMaxC= 1.00D-01 BMatC= 7.68D-04 BMatP= 2.41D-03
 IDIUse=3 WtCom= 9.47D-01 WtEn= 5.33D-02
 Coeff-Com: -0.941D-01-0.360D+00 0.145D+01
 Coeff-En:   0.000D+00 0.000D+00 0.100D+01
 Coeff:     -0.891D-01-0.340D+00 0.143D+01
 Gap=     0.830 Goal=   None    Shift=    0.000
 Gap=     0.756 Goal=   None    Shift=    0.000
 RMSDP=4.85D-03 MaxDP=1.98D-02 DE=-1.44D-03 OVMax= 0.00D+00

 Cycle   4  Pass 1  IDiag  1:
 E= -74.5943701157687     Delta-E=       -0.001016257029 Rises=F Damp=F
 DIIS: error= 4.29D-03 at cycle   4 NSaved=   4.
 NSaved= 4 IEnMin= 4 EnMin= -74.5943701157687     IErMin= 4 ErrMin= 4.29D-03
 ErrMax= 4.29D-03  0.00D+00 EMaxC= 1.00D-01 BMatC= 4.54D-04 BMatP= 7.68D-04
 IDIUse=3 WtCom= 9.57D-01 WtEn= 4.29D-02
 Coeff-Com:  0.688D-01 0.105D+00-0.210D+01 0.293D+01
 Coeff-En:   0.000D+00 0.000D+00 0.000D+00 0.100D+01
 Coeff:      0.658D-01 0.101D+00-0.201D+01 0.285D+01
 Gap=     0.843 Goal=   None    Shift=    0.000
 Gap=     0.755 Goal=   None    Shift=    0.000
 RMSDP=9.70D-03 MaxDP=3.86D-02 DE=-1.02D-03 OVMax= 0.00D+00

 Cycle   5  Pass 1  IDiag  1:
 E= -74.5957459688445     Delta-E=       -0.001375853076 Rises=F Damp=F
 DIIS: error= 2.83D-03 at cycle   5 NSaved=   5.
 NSaved= 5 IEnMin= 5 EnMin= -74.5957459688445     IErMin= 5 ErrMin= 2.83D-03
 ErrMax= 2.83D-03  0.00D+00 EMaxC= 1.00D-01 BMatC= 1.54D-04 BMatP= 4.54D-04
 IDIUse=3 WtCom= 9.72D-01 WtEn= 2.83D-02
 Coeff-Com: -0.364D-01 0.124D+00 0.154D+01-0.346D+01 0.284D+01
 Coeff-En:   0.000D+00 0.000D+00 0.000D+00 0.000D+00 0.100D+01
 Coeff:     -0.354D-01 0.120D+00 0.150D+01-0.337D+01 0.279D+01
 Gap=     0.863 Goal=   None    Shift=    0.000
 Gap=     0.748 Goal=   None    Shift=    0.000
 RMSDP=1.01D-02 MaxDP=3.47D-02 DE=-1.38D-03 OVMax= 0.00D+00

 Cycle   6  Pass 1  IDiag  1:
 E= -74.5963574485624     Delta-E=       -0.000611479718 Rises=F Damp=F
 DIIS: error= 6.33D-04 at cycle   6 NSaved=   6.
 NSaved= 6 IEnMin= 6 EnMin= -74.5963574485624     IErMin= 6 ErrMin= 6.33D-04
 ErrMax= 6.33D-04  0.00D+00 EMaxC= 1.00D-01 BMatC= 1.34D-05 BMatP= 1.54D-04
 IDIUse=3 WtCom= 9.94D-01 WtEn= 6.33D-03
 Coeff-Com:  0.201D-01-0.677D-01-0.114D+01 0.269D+01-0.249D+01 0.199D+01
 Coeff-En:   0.000D+00 0.000D+00 0.000D+00 0.000D+00 0.000D+00 0.100D+01
 Coeff:      0.200D-01-0.673D-01-0.113D+01 0.267D+01-0.248D+01 0.199D+01
 Gap=     0.866 Goal=   None    Shift=    0.000
 Gap=     0.745 Goal=   None    Shift=    0.000
 RMSDP=1.53D-03 MaxDP=7.49D-03 DE=-6.11D-04 OVMax= 0.00D+00

 Cycle   7  Pass 1  IDiag  1:
 E= -74.5963805795603     Delta-E=       -0.000023130998 Rises=F Damp=F
 DIIS: error= 2.43D-04 at cycle   7 NSaved=   7.
 NSaved= 7 IEnMin= 7 EnMin= -74.5963805795603     IErMin= 7 ErrMin= 2.43D-04
 ErrMax= 2.43D-04  0.00D+00 EMaxC= 1.00D-01 BMatC= 1.26D-06 BMatP= 1.34D-05
 IDIUse=3 WtCom= 9.98D-01 WtEn= 2.43D-03
 Coeff-Com: -0.182D-01 0.317D-01 0.112D+01-0.255D+01 0.225D+01-0.174D+01
 Coeff-Com:  0.190D+01
 Coeff-En:   0.000D+00 0.000D+00 0.000D+00 0.000D+00 0.000D+00 0.000D+00
 Coeff-En:   0.100D+01
 Coeff:     -0.181D-01 0.316D-01 0.111D+01-0.254D+01 0.225D+01-0.173D+01
 Coeff:      0.190D+01
 Gap=     0.868 Goal=   None    Shift=    0.000
 Gap=     0.745 Goal=   None    Shift=    0.000
 RMSDP=1.04D-03 MaxDP=4.10D-03 DE=-2.31D-05 OVMax= 0.00D+00

 Cycle   8  Pass 1  IDiag  1:
 E= -74.5963812365614     Delta-E=       -0.000000657001 Rises=F Damp=F
 DIIS: error= 2.86D-04 at cycle   8 NSaved=   8.
 NSaved= 8 IEnMin= 8 EnMin= -74.5963812365614     IErMin= 7 ErrMin= 2.43D-04
 ErrMax= 2.86D-04  0.00D+00 EMaxC= 1.00D-01 BMatC= 1.03D-06 BMatP= 1.26D-06
 IDIUse=3 WtCom= 9.98D-01 WtEn= 2.43D-03
 Coeff-Com:  0.838D-03 0.158D-01-0.872D-01 0.155D+00-0.744D-01-0.277D-01
 Coeff-Com: -0.419D-01 0.106D+01
 Coeff-En:   0.000D+00 0.000D+00 0.000D+00 0.000D+00 0.000D+00 0.000D+00
 Coeff-En:   0.000D+00 0.100D+01
 Coeff:      0.836D-03 0.158D-01-0.870D-01 0.154D+00-0.742D-01-0.276D-01
 Coeff:     -0.418D-01 0.106D+01
 Gap=     0.867 Goal=   None    Shift=    0.000
 Gap=     0.745 Goal=   None    Shift=    0.000
 RMSDP=5.51D-04 MaxDP=2.39D-03 DE=-6.57D-07 OVMax= 0.00D+00

 Cycle   9  Pass 1  IDiag  1:
 E= -74.5963825859141     Delta-E=       -0.000001349353 Rises=F Damp=F
 DIIS: error= 3.73D-05 at cycle   9 NSaved=   9.
 NSaved= 9 IEnMin= 9 EnMin= -74.5963825859141     IErMin= 9 ErrMin= 3.73D-05
 ErrMax= 3.73D-05  0.00D+00 EMaxC= 1.00D-01 BMatC= 2.53D-08 BMatP= 1.03D-06
 IDIUse=1 WtCom= 1.00D+00 WtEn= 0.00D+00
 Coeff-Com:  0.212D-03-0.105D-01 0.428D-03 0.245D-01-0.579D-01 0.983D-01
 Coeff-Com: -0.151D+00-0.455D+00 0.155D+01
 Coeff:      0.212D-03-0.105D-01 0.428D-03 0.245D-01-0.579D-01 0.983D-01
 Coeff:     -0.151D+00-0.455D+00 0.155D+01
 Gap=     0.867 Goal=   None    Shift=    0.000
 Gap=     0.745 Goal=   None    Shift=    0.000
 RMSDP=1.05D-04 MaxDP=3.90D-04 DE=-1.35D-06 OVMax= 0.00D+00

 Cycle  10  Pass 1  IDiag  1:
 E= -74.5963826247432     Delta-E=       -0.000000038829 Rises=F Damp=F
 DIIS: error= 1.08D-05 at cycle  10 NSaved=  10.
 NSaved=10 IEnMin=10 EnMin= -74.5963826247432     IErMin=10 ErrMin= 1.08D-05
 ErrMax= 1.08D-05  0.00D+00 EMaxC= 1.00D-01 BMatC= 1.90D-09 BMatP= 2.53D-08
 IDIUse=1 WtCom= 1.00D+00 WtEn= 0.00D+00
 Coeff-Com:  0.230D-04-0.918D-04-0.591D-03 0.194D-02-0.279D-02 0.276D-02
 Coeff-Com:  0.101D-01-0.350D-01 0.255D-01 0.998D+00
 Coeff:      0.230D-04-0.918D-04-0.591D-03 0.194D-02-0.279D-02 0.276D-02
 Coeff:      0.101D-01-0.350D-01 0.255D-01 0.998D+00
 Gap=     0.867 Goal=   None    Shift=    0.000
 Gap=     0.745 Goal=   None    Shift=    0.000
 RMSDP=2.04D-05 MaxDP=8.15D-05 DE=-3.88D-08 OVMax= 0.00D+00

 Cycle  11  Pass 1  IDiag  1:
 E= -74.5963826272215     Delta-E=       -0.000000002478 Rises=F Damp=F
 DIIS: error= 1.58D-07 at cycle  11 NSaved=  11.
 NSaved=11 IEnMin=11 EnMin= -74.5963826272215     IErMin=11 ErrMin= 1.58D-07
 ErrMax= 1.58D-07  0.00D+00 EMaxC= 1.00D-01 BMatC= 4.31D-13 BMatP= 1.90D-09
 IDIUse=1 WtCom= 1.00D+00 WtEn= 0.00D+00
 Coeff-Com: -0.815D-06 0.775D-06 0.135D-04-0.347D-04 0.570D-04-0.710D-04
 Coeff-Com: -0.569D-03 0.187D-02-0.368D-02-0.488D-01 0.105D+01
 Coeff:     -0.815D-06 0.775D-06 0.135D-04-0.347D-04 0.570D-04-0.710D-04
 Coeff:     -0.569D-03 0.187D-02-0.368D-02-0.488D-01 0.105D+01
 Gap=     0.867 Goal=   None    Shift=    0.000
 Gap=     0.745 Goal=   None    Shift=    0.000
 RMSDP=3.57D-07 MaxDP=1.39D-06 DE=-2.48D-09 OVMax= 0.00D+00

 Cycle  12  Pass 1  IDiag  1:
 E= -74.5963826272222     Delta-E=       -0.000000000001 Rises=F Damp=F
 DIIS: error= 2.13D-09 at cycle  12 NSaved=  12.
 NSaved=12 IEnMin=12 EnMin= -74.5963826272222     IErMin=12 ErrMin= 2.13D-09
 ErrMax= 2.13D-09  0.00D+00 EMaxC= 1.00D-01 BMatC= 6.03D-17 BMatP= 4.31D-13
 IDIUse=1 WtCom= 1.00D+00 WtEn= 0.00D+00
 Coeff-Com: -0.753D-09 0.582D-07 0.313D-07-0.426D-06 0.694D-06-0.676D-06
 Coeff-Com:  0.369D-06 0.105D-04 0.123D-04 0.102D-03 0.668D-02 0.993D+00
 Coeff:     -0.753D-09 0.582D-07 0.313D-07-0.426D-06 0.694D-06-0.676D-06
 Coeff:      0.369D-06 0.105D-04 0.123D-04 0.102D-03 0.668D-02 0.993D+00
 Gap=     0.867 Goal=   None    Shift=    0.000
 Gap=     0.745 Goal=   None    Shift=    0.000
 RMSDP=3.18D-09 MaxDP=1.61D-08 DE=-7.11D-13 OVMax= 0.00D+00

 SCF Done:  E(UHF) =  -74.5963826272     A.U. after   12 cycles
            NFock= 12  Conv=0.32D-08     -V/T= 2.0232
 <Sx>= 0.0000 <Sy>= 0.0000 <Sz>= 0.5000 <S**2>= 0.8298 S= 0.5391
 <L.S>=  0.00000000000    
 KE= 7.290575060836D+01 PE=-1.858976386199D+02 EE= 3.151942912003D+01
 Annihilation of the first spin contaminant:
 S**2 before annihilation     0.8298,   after     0.7536
 Leave Link  502 at Fri Feb  6 07:16:50 2026, MaxMem=  1048576000 cpu:               0.5 elap:               0.1
 (Enter /opt/Programs/Gaussian/16RevA.03//g16/l801.exe)
 Windowed orbitals will be sorted by symmetry type.
 ExpMin= 1.69D-01 ExpMax= 1.31D+02 ExpMxC= 1.31D+02 IAcc=3 IRadAn=         5 AccDes= 0.00D+00
 HarFok:  IExCor=  205 AccDes= 0.00D+00 IRadAn=         5 IDoV=-2 UseB2=F ITyADJ=14
 ICtDFT= 12500011 ScaDFX=  1.000000  1.000000  1.000000  1.000000
 Largest valence mixing into a core orbital is  4.37D-05
 Largest core mixing into a valence orbital is  2.36D-05
 Largest valence mixing into a core orbital is  6.90D-05
 Largest core mixing into a valence orbital is  5.82D-05
 Range of M.O.s used for correlation:     2     7
 NBasis=     7 NAE=     5 NBE=     4 NFC=     1 NFV=     0
 NROrb=      6 NOA=     4 NOB=     3 NVA=     2 NVB=     3
 Leave Link  801 at Fri Feb  6 07:16:50 2026, MaxMem=  1048576000 cpu:               0.3 elap:               0.0
 (Enter /opt/Programs/Gaussian/16RevA.03//g16/l804.exe)
 Open-shell transformation, MDV=  1048576000 ITran=3 ISComp=2.
 Unit  1 TFree=          4733 TCopy=        217560.
 Semi-Direct transformation.
 ModeAB=           2 MOrb=             4 LenV=    1048456193
 LASXX=           42 LTotXX=          42 LenRXX=          42
 LTotAB=         109 MaxLAS=         672 LenRXY=         672
 NonZer=         816 LenScr=      785920 LnRSAI=           0
 LnScr1=           0 LExtra=           0 Total=       786634
 MaxDsk=          -1 SrtSym=           F ITran=            3
 DoSDTr:  NPSUse=  8
 JobTyp=1 Pass  1:  I=   1 to   4.
 (rs|ai) integrals will be sorted in core.
 Complete sort for first half transformation.
 First half transformation complete.
 Complete sort for second half transformation.
 Second half transformation complete.
 ModeAB=           2 MOrb=             3 LenV=    1048456193
 LASXX=           38 LTotXX=          38 LenRXX=         504
 LTotAB=          10 MaxLAS=         504 LenRXY=          10
 NonZer=         612 LenScr=      785920 LnRSAI=           0
 LnScr1=           0 LExtra=           0 Total=       786434
 MaxDsk=          -1 SrtSym=           F ITran=            3
 DoSDTr:  NPSUse=  8
 JobTyp=2 Pass  1:  I=   1 to   3.
 (rs|ai) integrals will be sorted in core.
 Complete sort for first half transformation.
 First half transformation complete.
 Complete sort for second half transformation.
 Second half transformation complete.
 Spin components of T(2) and E(2):
     alpha-alpha T2 =       0.6209686937D-03 E2=     -0.1241266819D-02
     alpha-beta  T2 =       0.2200353447D-01 E2=     -0.4196423809D-01
     beta-beta   T2 =       0.1328003871D-02 E2=     -0.2412089650D-02
 ANorm=    0.1011905384D+01
 E2 =    -0.4561759456D-01 EUMP2 =    -0.74642000221786D+02
 (S**2,0)=  0.82975D+00           (S**2,1)=  0.80584D+00
 E(PUHF)=      -0.74604276401D+02        E(PMP2)=      -0.74648742326D+02
 Leave Link  804 at Fri Feb  6 07:16:50 2026, MaxMem=  1048576000 cpu:               0.5 elap:               0.1
 (Enter /opt/Programs/Gaussian/16RevA.03//g16/l913.exe)
 CIDS:  MDV=  1048576000.
 Frozen-core window:  NFC=   1 NFV=   0.
 IFCWin=0 IBDFC=1 NFBD=     0     0 NFCmp=     0     0 NFFFC=     0     0
 Using original routines for 1st iteration.
 Using original routines for 2nd and later iterations.
 Keep R2 and R3 ints in memory in symmetry-blocked form, NReq=1606002.
 FoFCou: FMM=F IPFlag=           0 FMFlag=           0 FMFlg1=           0
         NFxFlg=           0 DoJE=F BraDBF=F KetDBF=F FulRan=T
         wScrn=  0.000000 ICntrl=       600 IOpCl=  0 I1Cent=           0 NGrid=           0
         NMat0=    1 NMatS0=     28 NMatT0=    0 NMatD0=    1 NMtDS0=    0 NMtDT0=    0
 Petite list used in FoFCou.
 CIDS: In Core Option IDoMem=           1.
 Configuration Interaction with single- and double substitutions
 ===============================================================
 Iterations=  50 Convergence= 0.100D-06
 Normalization: A(0)=1
 Iteration Nr.   1
 **********************
 DD1Dir will call FoFMem   1 times, MxPair=        34
 NAB=    12 NAA=     6 NBB=     3.
 E(PMP3)=      -0.74659888494D+02
 Maximum subspace dimension=  5
 A-vector RMS=  2.6762084D-02 Max=  2.9376670D-02 conv= 1.00D-05.
 RLE energy=       -0.0605938045
 E3=       -0.12571243D-01        EUMP3=      -0.74654571465D+02
 DE(CI)=     -0.56825396E-01 E(CI)=       -74.653208023    
 NORM(A)=   0.10230914D+01
 SIZE-CONSISTENCY CORRECTION: 
 S.C.C.=   -0.19341064D-02        E(CI,SIZE)= -0.74655144406D+02
 Iteration Nr.   2
 **********************
 DD1Dir will call FoFMem   1 times, MxPair=        34
 NAB=    12 NAA=     6 NBB=     3.
 A-vector RMS=  1.2085394D-02 Max=  1.1059630D-02 conv= 1.00D-05.
 RLE energy=       -0.0678909158
 DE(CI)=     -0.64204451E-01 E(CI)=       -74.660587078    
 NORM(A)=   0.10313085D+01
 SIZE-CONSISTENCY CORRECTION: 
 S.C.C.=   -0.27638381D-02        E(CI,SIZE)= -0.74658381633D+02
 Iteration Nr.   3
 **********************
 DD1Dir will call FoFMem   1 times, MxPair=        34
 NAB=    12 NAA=     6 NBB=     3.
 A-vector RMS=  6.3856694D-03 Max=  5.9536505D-03 conv= 1.00D-05.
 RLE energy=       -0.0689731833
 DE(CI)=     -0.67823894E-01 E(CI)=       -74.664206522    
 NORM(A)=   0.10347534D+01
 SIZE-CONSISTENCY CORRECTION: 
 S.C.C.=   -0.32048497D-02        E(CI,SIZE)= -0.74661180547D+02
 Iteration Nr.   4
 **********************
 DD1Dir will call FoFMem   1 times, MxPair=        34
 NAB=    12 NAA=     6 NBB=     3.
 A-vector RMS=  1.8557843D-03 Max=  3.1283988D-03 conv= 1.00D-05.
 RLE energy=       -0.0692816073
 DE(CI)=     -0.68968064E-01 E(CI)=       -74.665350691    
 NORM(A)=   0.10361718D+01
 SIZE-CONSISTENCY CORRECTION: 
 S.C.C.=   -0.36357835D-02        E(CI,SIZE)= -0.74667025996D+02
 Iteration Nr.   5
 **********************
 DD1Dir will call FoFMem   1 times, MxPair=        34
 NAB=    12 NAA=     6 NBB=     3.
 A-vector RMS=  1.0366556D-03 Max=  1.4344433D-03 conv= 1.00D-05.
 RLE energy=       -0.0693085453
 DE(CI)=     -0.69289848E-01 E(CI)=       -74.665672476    
 NORM(A)=   0.10363091D+01
 SIZE-CONSISTENCY CORRECTION: 
 S.C.C.=   -0.37423065D-02        E(CI,SIZE)= -0.74668822322D+02
 Iteration Nr.   6
 **********************
 DD1Dir will call FoFMem   1 times, MxPair=        34
 NAB=    12 NAA=     6 NBB=     3.
 A-vector RMS=  5.0802845D-04 Max=  4.8308317D-04 conv= 1.00D-05.
 RLE energy=       -0.0692955334
 DE(CI)=     -0.69297974E-01 E(CI)=       -74.665680602    
 NORM(A)=   0.10362884D+01
 SIZE-CONSISTENCY CORRECTION: 
 S.C.C.=   -0.37712115D-02        E(CI,SIZE)= -0.74669423263D+02
 Iteration Nr.   7
 **********************
 DD1Dir will call FoFMem   1 times, MxPair=        34
 NAB=    12 NAA=     6 NBB=     3.
 A-vector RMS=  9.9603125D-05 Max=  1.3545931D-04 conv= 1.00D-05.
 RLE energy=       -0.0693107253
 DE(CI)=     -0.69301727E-01 E(CI)=       -74.665684354    
 NORM(A)=   0.10363116D+01
 SIZE-CONSISTENCY CORRECTION: 
 S.C.C.=   -0.37760848D-02        E(CI,SIZE)= -0.74669471070D+02
 Iteration Nr.   8
 **********************
 DD1Dir will call FoFMem   1 times, MxPair=        34
 NAB=    12 NAA=     6 NBB=     3.
 A-vector RMS=  3.9049055D-05 Max=  5.2058497D-05 conv= 1.00D-05.
 RLE energy=       -0.0693090884
 DE(CI)=     -0.69310177E-01 E(CI)=       -74.665692804    
 NORM(A)=   0.10363063D+01
 SIZE-CONSISTENCY CORRECTION: 
 S.C.C.=   -0.37743455D-02        E(CI,SIZE)= -0.74669448118D+02
 Iteration Nr.   9
 **********************
 DD1Dir will call FoFMem   1 times, MxPair=        34
 NAB=    12 NAA=     6 NBB=     3.
 A-vector RMS=  7.1475863D-06 Max=  5.7230335D-06 conv= 1.00D-05.
 RLE energy=       -0.0693071659
 DE(CI)=     -0.69308292E-01 E(CI)=       -74.665690920    
 NORM(A)=   0.10363031D+01
 SIZE-CONSISTENCY CORRECTION: 
 S.C.C.=   -0.37750287D-02        E(CI,SIZE)= -0.74669467599D+02
 Iteration Nr.  10
 **********************
 DD1Dir will call FoFMem   1 times, MxPair=        34
 NAB=    12 NAA=     6 NBB=     3.
 A-vector RMS=  2.7559670D-06 Max=  2.9844654D-06 conv= 1.00D-05.
 RLE energy=       -0.0693081163
 DE(CI)=     -0.69307378E-01 E(CI)=       -74.665690005    
 NORM(A)=   0.10363048D+01
 SIZE-CONSISTENCY CORRECTION: 
 S.C.C.=   -0.37752131D-02        E(CI,SIZE)= -0.74669467855D+02
 Iteration Nr.  11
 **********************
 DD1Dir will call FoFMem   1 times, MxPair=        34
 NAB=    12 NAA=     6 NBB=     3.
 A-vector RMS=  5.1936083D-07 Max=  6.1780752D-07 conv= 1.00D-05.
 RLE energy=       -0.0693079861
 DE(CI)=     -0.69307983E-01 E(CI)=       -74.665690610    
 NORM(A)=   0.10363048D+01
 SIZE-CONSISTENCY CORRECTION: 
 S.C.C.=   -0.37750251D-02        E(CI,SIZE)= -0.74669464193D+02
 Iteration Nr.  12
 **********************
 DD1Dir will call FoFMem   1 times, MxPair=        34
 NAB=    12 NAA=     6 NBB=     3.
 A-vector RMS=  2.9309522D-07 Max=  2.5947592D-07 conv= 1.00D-05.
 RLE energy=       -0.0693078556
 DE(CI)=     -0.69307939E-01 E(CI)=       -74.665690566    
 NORM(A)=   0.10363047D+01
 SIZE-CONSISTENCY CORRECTION: 
 S.C.C.=   -0.37750863D-02        E(CI,SIZE)= -0.74669465624D+02
 CI/CC converged in   12 iterations to DelEn= 4.44D-08 Conv= 1.00D-07 ErrA1= 2.93D-07 Conv= 1.00D-05
 Wavefunction amplitudes converged. E(Corr)=     -74.665690566    
 ***************************************************************
 Dominant configurations:
 ***********************
 Spin Case        I    J    A    B          Value
   ABAB           4    3    7    7       0.119718D+00
 Largest amplitude= 1.20D-01

 S**2, projected HF & approx projected MPn energies after annihilation of
 unwanted spin states (see manual for definitions):

 spins       (S**2,0) (S**2,1)    PUHF        PMP2        PMP3        PMP4
 annihilated
 s+1         0.74782  0.74924  -74.604276  -74.648742  -74.659888
 s+1,s+2     0.75000  0.75000  -74.604110  -74.648583  -74.659738

 Discarding MO integrals.
 Leave Link  913 at Fri Feb  6 07:16:50 2026, MaxMem=  1048576000 cpu:               0.7 elap:               0.1
 (Enter /opt/Programs/Gaussian/16RevA.03//g16/l601.exe)
 Copying SCF densities to generalized density rwf, IOpCl= 1 IROHF=0.

 **********************************************************************

            Population analysis using the SCF density.

 **********************************************************************

 Orbital symmetries:
 Alpha Orbitals:
       Occupied  (A1) (A1) (B1) (B2) (A1)
       Virtual   (A1) (B2)
 Beta  Orbitals:
       Occupied  (A1) (A1) (B2) (A1)
       Virtual   (B1) (A1) (B2)
 The electronic state is 2-B1.
 Alpha  occ. eigenvalues --  -20.93569  -1.77097  -1.02628  -1.00682  -0.96230
 Alpha virt. eigenvalues --   -0.09493  -0.02781
  Beta  occ. eigenvalues --  -20.89788  -1.55094  -0.93113  -0.87101
  Beta virt. eigenvalues --   -0.12602  -0.09173  -0.01977
          Condensed to atoms (all electrons):
               1          2          3
     1  O    7.451574   0.183912   0.183912
     2  H    0.183912   0.417442  -0.011053
     3  H    0.183912  -0.011053   0.417442
          Atomic-Atomic Spin Densities.
               1          2          3
     1  O    1.435345  -0.021708  -0.021708
     2  H   -0.021708  -0.177387   0.003131
     3  H   -0.021708   0.003131  -0.177387
 Mulliken charges and spin densities:
               1          2
     1  O    0.180602   1.391929
     2  H    0.409699  -0.195965
     3  H    0.409699  -0.195965
 Sum of Mulliken charges =   1.00000   1.00000
 Mulliken charges and spin densities with hydrogens summed into heavy atoms:
               1          2
     1  O    1.000000   1.000000
 Electronic spatial extent (au):  <R**2>=             17.4319
 Charge=              1.0000 electrons
 Dipole moment (field-independent basis, Debye):
    X=             -0.0000    Y=              0.0000    Z=             -2.9193  Tot=              2.9193
 Quadrupole moment (field-independent basis, Debye-Ang):
   XX=             -4.8077   YY=             -0.6626   ZZ=             -3.4514
   XY=              0.0000   XZ=              0.0000   YZ=              0.0000
 Traceless Quadrupole moment (field-independent basis, Debye-Ang):
   XX=             -1.8338   YY=              2.3113   ZZ=             -0.4775
   XY=              0.0000   XZ=              0.0000   YZ=              0.0000
 Octapole moment (field-independent basis, Debye-Ang**2):
  XXX=              0.0000  YYY=              0.0000  ZZZ=             -1.6792  XYY=             -0.0000
  XXY=             -0.0000  XXZ=             -0.0297  XZZ=             -0.0000  YZZ=              0.0000
  YYZ=             -3.1952  XYZ=             -0.0000
 Hexadecapole moment (field-independent basis, Debye-Ang**3):
 XXXX=             -2.4541 YYYY=             -3.0558 ZZZZ=             -4.6768 XXXY=             -0.0000
 XXXZ=             -0.0000 YYYX=              0.0000 YYYZ=             -0.0000 ZZZX=             -0.0000
 ZZZY=              0.0000 XXYY=             -1.7647 XXZZ=             -1.3278 YYZZ=             -0.1426
 XXYZ=             -0.0000 YYXZ=              0.0000 ZZXY=              0.0000
 N-N= 6.876076264268D+00 E-N=-1.858976385855D+02  KE= 7.290575060836D+01
 Symmetry A1   KE= 6.699994606735D+01
 Symmetry A2   KE= 0.000000000000D+00
 Symmetry B1   KE= 2.528731226009D+00
 Symmetry B2   KE= 3.377073315000D+00
 Symmetry A1   SP= 2.245768622796D-15
 Symmetry A2   SP= 0.000000000000D+00
 Symmetry B1   SP= 1.000000000000D+00
 Symmetry B2   SP=-1.868818721080D-16
 Leave Link  601 at Fri Feb  6 07:16:50 2026, MaxMem=  1048576000 cpu:               0.3 elap:               0.0
 (Enter /opt/Programs/Gaussian/16RevA.03//g16/l9999.exe)
 1\1\GINC-CHOU\SP\UCISD-FC\STO-3G\H2O1(1+,2)\RTCHOU\06-Feb-2026\0\\#p C
 ISD/STO-3G\\Generated by ChouChem Test Suite\\1,2\O,0,0.,0.,0.\H,0,0.,
 1.,0.8\H,0,0.,-1.,0.8\\Version=ES64L-G16RevA.03\State=2-B1\HF=-74.5963
 826\MP2=-74.6420002\MP3=-74.6545715\PUHF=-74.6042764\PMP2-0=-74.648742
 3\PMP3-0=-74.6598885\CISD=-74.6656906\S2=0.82975\S2-1=0.805845\S2A=0.7
 53623\RMSD=3.183e-09\PG=C02V [C2(O1),SGV(H2)]\\@


 YOU CANNOT THROW TO THE GROUND THE LETTERS OF
 THE GREEK ALPHABET AND PICK UP THE ILIAD.
        - RUFUS CHOATE, 1799-1859
 Job cpu time:       0 days  0 hours  0 minutes  5.4 seconds.
 Elapsed time:       0 days  0 hours  0 minutes  0.7 seconds.
 File lengths (MBytes):  RWF=     13 Int=      0 D2E=      0 Chk=      1 Scr=      1
 Normal termination of Gaussian 16 at Fri Feb  6 07:16:51 2026.
