 Entering Gaussian System, Link 0=g16
 Input=test_g16/H2O_6-31G_Q0_RCI.gjf
 Output=test_g16/H2O_6-31G_Q0_RCI.log
 Initial command:
 /opt/Programs/Gaussian/16RevA.03//g16/l1.exe "/opt/Programs/Gaussian/16RevA.03/g16/scratch/Gau-245473.inp" -scrdir="/opt/Programs/Gaussian/16RevA.03/g16/scratch/"
 Entering Link 1 = /opt/Programs/Gaussian/16RevA.03//g16/l1.exe PID=    245474.
  
 Copyright (c) 1988,1990,1992,1993,1995,1998,2003,2009,2016,
            Gaussian, Inc.  All Rights Reserved.
  
 This is part of the Gaussian(R) 16 program.  It is based on
 the Gaussian(R) 09 system (copyright 2009, Gaussian, Inc.),
 the Gaussian(R) 03 system (copyright 2003, Gaussian, Inc.),
 the Gaussian(R) 98 system (copyright 1998, Gaussian, Inc.),
 the Gaussian(R) 94 system (copyright 1995, Gaussian, Inc.),
 the Gaussian 92(TM) system (copyright 1992, Gaussian, Inc.),
 the Gaussian 90(TM) system (copyright 1990, Gaussian, Inc.),
 the Gaussian 88(TM) system (copyright 1988, Gaussian, Inc.),
 the Gaussian 86(TM) system (copyright 1986, Carnegie Mellon
 University), and the Gaussian 82(TM) system (copyright 1983,
 Carnegie Mellon University). Gaussian is a federally registered
 trademark of Gaussian, Inc.
  
 This software contains proprietary and confidential information,
 including trade secrets, belonging to Gaussian, Inc.
  
 This software is provided under written license and may be
 used, copied, transmitted, or stored only in accord with that
 written license.
  
 The following legend is applicable only to US Government
 contracts under FAR:
  
                    RESTRICTED RIGHTS LEGEND
  
 Use, reproduction and disclosure by the US Government is
 subject to restrictions as set forth in subparagraphs (a)
 and (c) of the Commercial Computer Software - Restricted
 Rights clause in FAR 52.227-19.
  
 Gaussian, Inc.
 340 Quinnipiac St., Bldg. 40, Wallingford CT 06492
  
  
 ---------------------------------------------------------------
 Warning -- This program may not be used in any manner that
 competes with the business of Gaussian, Inc. or will provide
 assistance to any competitor of Gaussian, Inc.  The licensee
 of this program is prohibited from giving any competitor of
 Gaussian, Inc. access to this program.  By using this program,
 the user acknowledges that Gaussian, Inc. is engaged in the
 business of creating and licensing software in the field of
 computational chemistry and represents and warrants to the
 licensee that it is not a competitor of Gaussian, Inc. and that
 it will not use this program in any manner prohibited above.
 ---------------------------------------------------------------
  

 Cite this work as:
 Gaussian 16, Revision A.03,
 M. J. Frisch, G. W. Trucks, H. B. Schlegel, G. E. Scuseria, 
 M. A. Robb, J. R. Cheeseman, G. Scalmani, V. Barone, 
 G. A. Petersson, H. Nakatsuji, X. Li, M. Caricato, A. V. Marenich, 
 J. Bloino, B. G. Janesko, R. Gomperts, B. Mennucci, H. P. Hratchian, 
 J. V. Ortiz, A. F. Izmaylov, J. L. Sonnenberg, D. Williams-Young, 
 F. Ding, F. Lipparini, F. Egidi, J. Goings, B. Peng, A. Petrone, 
 T. Henderson, D. Ranasinghe, V. G. Zakrzewski, J. Gao, N. Rega, 
 G. Zheng, W. Liang, M. Hada, M. Ehara, K. Toyota, R. Fukuda, 
 J. Hasegawa, M. Ishida, T. Nakajima, Y. Honda, O. Kitao, H. Nakai, 
 T. Vreven, K. Throssell, J. A. Montgomery, Jr., J. E. Peralta, 
 F. Ogliaro, M. J. Bearpark, J. J. Heyd, E. N. Brothers, K. N. Kudin, 
 V. N. Staroverov, T. A. Keith, R. Kobayashi, J. Normand, 
 K. Raghavachari, A. P. Rendell, J. C. Burant, S. S. Iyengar, 
 J. Tomasi, M. Cossi, J. M. Millam, M. Klene, C. Adamo, R. Cammi, 
 J. W. Ochterski, R. L. Martin, K. Morokuma, O. Farkas, 
 J. B. Foresman, and D. J. Fox, Gaussian, Inc., Wallingford CT, 2016.
 
 ******************************************
 Gaussian 16:  ES64L-G16RevA.03 25-Dec-2016
                 6-Feb-2026 
 ******************************************
 %Mem=8000MB
 %NProcShared=8
 Will use up to    8 processors via shared memory.
 -------------
 #p CISD/6-31G
 -------------
 1/38=1,172=1/1;
 2/12=2,17=6,18=5,40=1/2;
 3/5=1,6=6,11=9,25=1,30=1/1,2,3;
 4//1;
 5/5=2,38=5/2;
 8/6=3,9=120000,10=2/1,4;
 9//13;
 6/7=2,8=2,9=2,10=2/1;
 99/5=1,9=1/99;
 Leave Link    1 at Fri Feb  6 07:16:42 2026, MaxMem=  1048576000 cpu:               0.1 elap:               0.0
 (Enter /opt/Programs/Gaussian/16RevA.03//g16/l101.exe)
 --------------------------------
 Generated by ChouChem Test Suite
 --------------------------------
 Symbolic Z-matrix:
 Charge =  0 Multiplicity = 1
 O                     0.        0.        0. 
 H                     0.        1.        0.8 
 H                     0.       -1.        0.8 
 
 ITRead=  0  0  0
 MicOpt= -1 -1 -1
 NAtoms=      3 NQM=        3 NQMF=       0 NMMI=      0 NMMIF=      0
                NMic=       0 NMicF=      0.
                    Isotopes and Nuclear Properties:
 (Nuclear quadrupole moments (NQMom) in fm**2, nuclear magnetic moments (NMagM)
  in nuclear magnetons)

  Atom         1           2           3
 IAtWgt=          16           1           1
 AtmWgt=  15.9949146   1.0078250   1.0078250
 NucSpn=           0           1           1
 AtZEff=  -0.0000000  -0.0000000  -0.0000000
 NQMom=    0.0000000   0.0000000   0.0000000
 NMagM=    0.0000000   2.7928460   2.7928460
 AtZNuc=   8.0000000   1.0000000   1.0000000
 Leave Link  101 at Fri Feb  6 07:16:42 2026, MaxMem=  1048576000 cpu:               1.7 elap:               0.2
 (Enter /opt/Programs/Gaussian/16RevA.03//g16/l202.exe)
                          Input orientation:                          
 ---------------------------------------------------------------------
 Center     Atomic      Atomic             Coordinates (Angstroms)
 Number     Number       Type             X           Y           Z
 ---------------------------------------------------------------------
      1          8           0        0.000000    0.000000    0.000000
      2          1           0        0.000000    1.000000    0.800000
      3          1           0        0.000000   -1.000000    0.800000
 ---------------------------------------------------------------------
                    Distance matrix (angstroms):
                    1          2          3
     1  O    0.000000
     2  H    1.280625   0.000000
     3  H    1.280625   2.000000   0.000000
 Stoichiometry    H2O
 Framework group  C2V[C2(O),SGV(H2)]
 Deg. of freedom     2
 Full point group                 C2V     NOp   4
 Largest Abelian subgroup         C2V     NOp   4
 Largest concise Abelian subgroup C2      NOp   2
                         Standard orientation:                         
 ---------------------------------------------------------------------
 Center     Atomic      Atomic             Coordinates (Angstroms)
 Number     Number       Type             X           Y           Z
 ---------------------------------------------------------------------
      1          8           0       -0.000000    0.000000    0.160000
      2          1           0        0.000000    1.000000   -0.640000
      3          1           0       -0.000000   -1.000000   -0.640000
 ---------------------------------------------------------------------
 Rotational constants (GHZ):         441.1309105         250.7275522         159.8645957
 Leave Link  202 at Fri Feb  6 07:16:42 2026, MaxMem=  1048576000 cpu:               0.0 elap:               0.0
 (Enter /opt/Programs/Gaussian/16RevA.03//g16/l301.exe)
 Standard basis: 6-31G (6D, 7F)
 Ernie: Thresh=  0.10000D-02 Tol=  0.10000D-05 Strict=F.
 There are     7 symmetry adapted cartesian basis functions of A1  symmetry.
 There are     0 symmetry adapted cartesian basis functions of A2  symmetry.
 There are     2 symmetry adapted cartesian basis functions of B1  symmetry.
 There are     4 symmetry adapted cartesian basis functions of B2  symmetry.
 There are     7 symmetry adapted basis functions of A1  symmetry.
 There are     0 symmetry adapted basis functions of A2  symmetry.
 There are     2 symmetry adapted basis functions of B1  symmetry.
 There are     4 symmetry adapted basis functions of B2  symmetry.
    13 basis functions,    30 primitive gaussians,    13 cartesian basis functions
     5 alpha electrons        5 beta electrons
       nuclear repulsion energy         6.8760762643 Hartrees.
 IExCor=    0 DFT=F Ex=HF Corr=None ExCW=0 ScaHFX=  1.000000
 ScaDFX=  1.000000  1.000000  1.000000  1.000000 ScalE2=  1.000000  1.000000
 IRadAn=      5 IRanWt=     -1 IRanGd=            0 ICorTp=0 IEmpDi=  4
 NAtoms=    3 NActive=    3 NUniq=    2 SFac= 2.25D+00 NAtFMM=   60 NAOKFM=F Big=F
 Integral buffers will be    131072 words long.
 Raffenetti 1 integral format.
 Two-electron integral symmetry is turned on.
 Leave Link  301 at Fri Feb  6 07:16:42 2026, MaxMem=  1048576000 cpu:               0.2 elap:               0.0
 (Enter /opt/Programs/Gaussian/16RevA.03//g16/l302.exe)
 NPDir=0 NMtPBC=     1 NCelOv=     1 NCel=       1 NClECP=     1 NCelD=      1
         NCelK=      1 NCelE2=     1 NClLst=     1 CellRange=     0.0.
 One-electron integrals computed using PRISM.
 One-electron integral symmetry used in STVInt
 NBasis=    13 RedAO= T EigKep=  1.17D-01  NBF=     7     0     2     4
 NBsUse=    13 1.00D-06 EigRej= -1.00D+00 NBFU=     7     0     2     4
 Leave Link  302 at Fri Feb  6 07:16:42 2026, MaxMem=  1048576000 cpu:               0.5 elap:               0.1
 (Enter /opt/Programs/Gaussian/16RevA.03//g16/l303.exe)
 DipDrv:  MaxL=1.
 Leave Link  303 at Fri Feb  6 07:16:42 2026, MaxMem=  1048576000 cpu:               0.2 elap:               0.0
 (Enter /opt/Programs/Gaussian/16RevA.03//g16/l401.exe)
 ExpMin= 1.61D-01 ExpMax= 5.48D+03 ExpMxC= 8.25D+02 IAcc=3 IRadAn=         5 AccDes= 0.00D+00
 Harris functional with IExCor=  205 and IRadAn=       5 diagonalized for initial guess.
 HarFok:  IExCor=  205 AccDes= 0.00D+00 IRadAn=         5 IDoV= 1 UseB2=F ITyADJ=14
 ICtDFT=  3500011 ScaDFX=  1.000000  1.000000  1.000000  1.000000
 FoFCou: FMM=F IPFlag=           0 FMFlag=      100000 FMFlg1=           0
         NFxFlg=           0 DoJE=T BraDBF=F KetDBF=T FulRan=T
         wScrn=  0.000000 ICntrl=       500 IOpCl=  0 I1Cent=   200000004 NGrid=           0
         NMat0=    1 NMatS0=      1 NMatT0=    0 NMatD0=    1 NMtDS0=    0 NMtDT0=    0
 Petite list used in FoFCou.
 Harris En= -75.9986832362510    
 JPrj=0 DoOrth=F DoCkMO=F.
 Initial guess orbital symmetries:
       Occupied  (A1) (A1) (B2) (A1) (B1)
       Virtual   (A1) (B2) (A1) (B2) (B1) (A1) (B2) (A1)
 The electronic state of the initial guess is 1-A1.
 Leave Link  401 at Fri Feb  6 07:16:42 2026, MaxMem=  1048576000 cpu:               0.6 elap:               0.1
 (Enter /opt/Programs/Gaussian/16RevA.03//g16/l502.exe)
 Keep R1 ints in memory in symmetry-blocked form, NReq=1610710.
 FoFCou: FMM=F IPFlag=           0 FMFlag=           0 FMFlg1=           0
         NFxFlg=           0 DoJE=F BraDBF=F KetDBF=F FulRan=T
         wScrn=  0.000000 ICntrl=       600 IOpCl=  0 I1Cent=           0 NGrid=           0
         NMat0=    1 NMatS0=     91 NMatT0=    0 NMatD0=    1 NMtDS0=    0 NMtDT0=    0
 Petite list used in FoFCou.
 Closed shell SCF:
 Using DIIS extrapolation, IDIIS=  1040.
 NGot=  1048576000 LenX=  1048572481 LenY=  1048571599
 Requested convergence on RMS density matrix=1.00D-08 within 128 cycles.
 Requested convergence on MAX density matrix=1.00D-06.
 Requested convergence on             energy=1.00D-06.
 No special actions if energy rises.

 Cycle   1  Pass 1  IDiag  1:
 E= -75.7859521499202    
 DIIS: error= 8.60D-02 at cycle   1 NSaved=   1.
 NSaved= 1 IEnMin= 1 EnMin= -75.7859521499202     IErMin= 1 ErrMin= 8.60D-02
 ErrMax= 8.60D-02  0.00D+00 EMaxC= 1.00D-01 BMatC= 1.02D-01 BMatP= 1.02D-01
 IDIUse=3 WtCom= 1.40D-01 WtEn= 8.60D-01
 Coeff-Com:  0.100D+01
 Coeff-En:   0.100D+01
 Coeff:      0.100D+01
 Gap=     0.456 Goal=   None    Shift=    0.000
 GapD=    0.456 DampG=2.000 DampE=0.500 DampFc=1.0000 IDamp=-1.
 RMSDP=2.62D-02 MaxDP=1.36D-01              OVMax= 1.83D-01

 Cycle   2  Pass 1  IDiag  1:
 E= -75.8207077549175     Delta-E=       -0.034755604997 Rises=F Damp=F
 DIIS: error= 7.36D-02 at cycle   2 NSaved=   2.
 NSaved= 2 IEnMin= 2 EnMin= -75.8207077549175     IErMin= 2 ErrMin= 7.36D-02
 ErrMax= 7.36D-02  0.00D+00 EMaxC= 1.00D-01 BMatC= 6.88D-02 BMatP= 1.02D-01
 IDIUse=3 WtCom= 2.64D-01 WtEn= 7.36D-01
 Coeff-Com:  0.447D+00 0.553D+00
 Coeff-En:   0.342D+00 0.658D+00
 Coeff:      0.370D+00 0.630D+00
 Gap=     0.609 Goal=   None    Shift=    0.000
 RMSDP=1.46D-02 MaxDP=7.59D-02 DE=-3.48D-02 OVMax= 7.19D-02

 Cycle   3  Pass 1  IDiag  1:
 E= -75.8712621564522     Delta-E=       -0.050554401535 Rises=F Damp=F
 DIIS: error= 1.15D-02 at cycle   3 NSaved=   3.
 NSaved= 3 IEnMin= 3 EnMin= -75.8712621564522     IErMin= 3 ErrMin= 1.15D-02
 ErrMax= 1.15D-02  0.00D+00 EMaxC= 1.00D-01 BMatC= 1.33D-03 BMatP= 6.88D-02
 IDIUse=3 WtCom= 8.85D-01 WtEn= 1.15D-01
 Coeff-Com: -0.553D-01 0.663D-01 0.989D+00
 Coeff-En:   0.000D+00 0.000D+00 0.100D+01
 Coeff:     -0.490D-01 0.587D-01 0.990D+00
 Gap=     0.604 Goal=   None    Shift=    0.000
 RMSDP=2.14D-03 MaxDP=1.33D-02 DE=-5.06D-02 OVMax= 1.71D-02

 Cycle   4  Pass 1  IDiag  1:
 E= -75.8727119629433     Delta-E=       -0.001449806491 Rises=F Damp=F
 DIIS: error= 3.17D-03 at cycle   4 NSaved=   4.
 NSaved= 4 IEnMin= 4 EnMin= -75.8727119629433     IErMin= 4 ErrMin= 3.17D-03
 ErrMax= 3.17D-03  0.00D+00 EMaxC= 1.00D-01 BMatC= 6.62D-05 BMatP= 1.33D-03
 IDIUse=3 WtCom= 9.68D-01 WtEn= 3.17D-02
 Coeff-Com:  0.128D-01-0.673D-01-0.349D+00 0.140D+01
 Coeff-En:   0.000D+00 0.000D+00 0.000D+00 0.100D+01
 Coeff:      0.124D-01-0.652D-01-0.338D+00 0.139D+01
 Gap=     0.612 Goal=   None    Shift=    0.000
 RMSDP=6.53D-04 MaxDP=5.02D-03 DE=-1.45D-03 OVMax= 1.47D-03

 Cycle   5  Pass 1  IDiag  1:
 E= -75.8727843991677     Delta-E=       -0.000072436224 Rises=F Damp=F
 DIIS: error= 2.74D-04 at cycle   5 NSaved=   5.
 NSaved= 5 IEnMin= 5 EnMin= -75.8727843991677     IErMin= 5 ErrMin= 2.74D-04
 ErrMax= 2.74D-04  0.00D+00 EMaxC= 1.00D-01 BMatC= 3.73D-07 BMatP= 6.62D-05
 IDIUse=3 WtCom= 9.97D-01 WtEn= 2.74D-03
 Coeff-Com: -0.281D-02 0.194D-01 0.902D-01-0.472D+00 0.137D+01
 Coeff-En:   0.000D+00 0.000D+00 0.000D+00 0.000D+00 0.100D+01
 Coeff:     -0.280D-02 0.194D-01 0.899D-01-0.471D+00 0.136D+01
 Gap=     0.613 Goal=   None    Shift=    0.000
 RMSDP=8.93D-05 MaxDP=6.30D-04 DE=-7.24D-05 OVMax= 5.14D-04

 Cycle   6  Pass 1  IDiag  1:
 E= -75.8727852413210     Delta-E=       -0.000000842153 Rises=F Damp=F
 DIIS: error= 2.42D-05 at cycle   6 NSaved=   6.
 NSaved= 6 IEnMin= 6 EnMin= -75.8727852413210     IErMin= 6 ErrMin= 2.42D-05
 ErrMax= 2.42D-05  0.00D+00 EMaxC= 1.00D-01 BMatC= 1.16D-08 BMatP= 3.73D-07
 IDIUse=1 WtCom= 1.00D+00 WtEn= 0.00D+00
 Coeff-Com:  0.894D-03-0.650D-02-0.301D-01 0.170D+00-0.539D+00 0.140D+01
 Coeff:      0.894D-03-0.650D-02-0.301D-01 0.170D+00-0.539D+00 0.140D+01
 Gap=     0.613 Goal=   None    Shift=    0.000
 RMSDP=1.69D-05 MaxDP=8.66D-05 DE=-8.42D-07 OVMax= 1.22D-04

 Cycle   7  Pass 1  IDiag  1:
 E= -75.8727852804028     Delta-E=       -0.000000039082 Rises=F Damp=F
 DIIS: error= 1.50D-05 at cycle   7 NSaved=   7.
 NSaved= 7 IEnMin= 7 EnMin= -75.8727852804028     IErMin= 7 ErrMin= 1.50D-05
 ErrMax= 1.50D-05  0.00D+00 EMaxC= 1.00D-01 BMatC= 1.94D-09 BMatP= 1.16D-08
 IDIUse=1 WtCom= 1.00D+00 WtEn= 0.00D+00
 Coeff-Com: -0.135D-03 0.120D-02 0.576D-02-0.428D-01 0.161D+00-0.908D+00
 Coeff-Com:  0.178D+01
 Coeff:     -0.135D-03 0.120D-02 0.576D-02-0.428D-01 0.161D+00-0.908D+00
 Coeff:      0.178D+01
 Gap=     0.613 Goal=   None    Shift=    0.000
 RMSDP=9.73D-06 MaxDP=4.74D-05 DE=-3.91D-08 OVMax= 7.94D-05

 Cycle   8  Pass 1  IDiag  1:
 E= -75.8727852888582     Delta-E=       -0.000000008455 Rises=F Damp=F
 DIIS: error= 1.15D-06 at cycle   8 NSaved=   8.
 NSaved= 8 IEnMin= 8 EnMin= -75.8727852888582     IErMin= 8 ErrMin= 1.15D-06
 ErrMax= 1.15D-06  0.00D+00 EMaxC= 1.00D-01 BMatC= 2.48D-11 BMatP= 1.94D-09
 IDIUse=1 WtCom= 1.00D+00 WtEn= 0.00D+00
 Coeff-Com: -0.226D-04 0.879D-04 0.394D-03 0.123D-02-0.117D-01 0.171D+00
 Coeff-Com: -0.489D+00 0.133D+01
 Coeff:     -0.226D-04 0.879D-04 0.394D-03 0.123D-02-0.117D-01 0.171D+00
 Coeff:     -0.489D+00 0.133D+01
 Gap=     0.613 Goal=   None    Shift=    0.000
 RMSDP=1.28D-06 MaxDP=4.63D-06 DE=-8.46D-09 OVMax= 1.09D-05

 Cycle   9  Pass 1  IDiag  1:
 E= -75.8727852889790     Delta-E=       -0.000000000121 Rises=F Damp=F
 DIIS: error= 1.03D-07 at cycle   9 NSaved=   9.
 NSaved= 9 IEnMin= 9 EnMin= -75.8727852889790     IErMin= 9 ErrMin= 1.03D-07
 ErrMax= 1.03D-07  0.00D+00 EMaxC= 1.00D-01 BMatC= 1.37D-13 BMatP= 2.48D-11
 IDIUse=1 WtCom= 1.00D+00 WtEn= 0.00D+00
 Coeff-Com:  0.225D-05-0.425D-05-0.145D-04-0.463D-03 0.266D-02-0.289D-01
 Coeff-Com:  0.799D-01-0.266D+00 0.121D+01
 Coeff:      0.225D-05-0.425D-05-0.145D-04-0.463D-03 0.266D-02-0.289D-01
 Coeff:      0.799D-01-0.266D+00 0.121D+01
 Gap=     0.613 Goal=   None    Shift=    0.000
 RMSDP=9.50D-08 MaxDP=3.46D-07 DE=-1.21D-10 OVMax= 7.69D-07

 Cycle  10  Pass 1  IDiag  1:
 E= -75.8727852889796     Delta-E=       -0.000000000001 Rises=F Damp=F
 DIIS: error= 7.34D-09 at cycle  10 NSaved=  10.
 NSaved=10 IEnMin=10 EnMin= -75.8727852889796     IErMin=10 ErrMin= 7.34D-09
 ErrMax= 7.34D-09  0.00D+00 EMaxC= 1.00D-01 BMatC= 1.12D-15 BMatP= 1.37D-13
 IDIUse=1 WtCom= 1.00D+00 WtEn= 0.00D+00
 Coeff-Com: -0.276D-06 0.507D-06 0.189D-05 0.541D-04-0.314D-03 0.339D-02
 Coeff-Com: -0.983D-02 0.362D-01-0.220D+00 0.119D+01
 Coeff:     -0.276D-06 0.507D-06 0.189D-05 0.541D-04-0.314D-03 0.339D-02
 Coeff:     -0.983D-02 0.362D-01-0.220D+00 0.119D+01
 Gap=     0.613 Goal=   None    Shift=    0.000
 RMSDP=6.80D-09 MaxDP=2.36D-08 DE=-6.11D-13 OVMax= 4.72D-08

 SCF Done:  E(RHF) =  -75.8727852890     A.U. after   10 cycles
            NFock= 10  Conv=0.68D-08     -V/T= 2.0093
 KE= 7.517298217211D+01 PE=-1.937790929331D+02 EE= 3.585724920776D+01
 Leave Link  502 at Fri Feb  6 07:16:42 2026, MaxMem=  1048576000 cpu:               0.5 elap:               0.1
 (Enter /opt/Programs/Gaussian/16RevA.03//g16/l801.exe)
 Windowed orbitals will be sorted by symmetry type.
 ExpMin= 1.61D-01 ExpMax= 5.48D+03 ExpMxC= 8.25D+02 IAcc=3 IRadAn=         5 AccDes= 0.00D+00
 HarFok:  IExCor=  205 AccDes= 0.00D+00 IRadAn=         5 IDoV=-2 UseB2=F ITyADJ=14
 ICtDFT= 12500011 ScaDFX=  1.000000  1.000000  1.000000  1.000000
 Largest valence mixing into a core orbital is  6.71D-05
 Largest core mixing into a valence orbital is  2.36D-05
 Range of M.O.s used for correlation:     2    13
 NBasis=    13 NAE=     5 NBE=     5 NFC=     1 NFV=     0
 NROrb=     12 NOA=     4 NOB=     4 NVA=     8 NVB=     8
 Leave Link  801 at Fri Feb  6 07:16:42 2026, MaxMem=  1048576000 cpu:               0.3 elap:               0.0
 (Enter /opt/Programs/Gaussian/16RevA.03//g16/l804.exe)
 Closed-shell transformation, MDV=  1048576000 ITran=3 ISComp=2.
 Unit  1 TFree=          7225 TCopy=        117062.
 Semi-Direct transformation.
 ModeAB=           4 MOrb=             4 LenV=    1048452586
 LASXX=          396 LTotXX=         396 LenRXX=         942
 LTotAB=         546 MaxLAS=        3888 LenRXY=           0
 NonZer=        1338 LenScr=      785920 LnRSAI=        3888
 LnScr1=      785920 LExtra=           0 Total=      1576670
 MaxDsk=          -1 SrtSym=           T ITran=            3
 DoSDTr:  NPSUse=  8
 JobTyp=0 Pass  1:  I=   1 to   4.
 (rs|ai) integrals will be sorted in core.
 Complete sort for first half transformation.
 First half transformation complete.
 Complete sort for second half transformation.
 Second half transformation complete.
 Spin components of T(2) and E(2):
     alpha-alpha T2 =       0.6507934364D-02 E2=     -0.1809194000D-01
     alpha-beta  T2 =       0.5077412205D-01 E2=     -0.1232129926D+00
     beta-beta   T2 =       0.6507934364D-02 E2=     -0.1809194000D-01
 ANorm=    0.1031401954D+01
 E2 =    -0.1593968726D+00 EUMP2 =    -0.76032182161537D+02
 Leave Link  804 at Fri Feb  6 07:16:42 2026, MaxMem=  1048576000 cpu:               0.3 elap:               0.0
 (Enter /opt/Programs/Gaussian/16RevA.03//g16/l913.exe)
 CIDS:  MDV=  1048576000.
 Frozen-core window:  NFC=   1 NFV=   0.
 IFCWin=0 IBDFC=1 NFBD=     0     0 NFCmp=     0     0 NFFFC=     0     0
 Using DD3R+UMP44R for 1st iteration.
 Using DD3R+UMP44R for 2nd and later iterations.
 Keep R2 and R3 ints in memory in symmetry-blocked form, NReq=1613158.
 FoFCou: FMM=F IPFlag=           0 FMFlag=           0 FMFlg1=           0
         NFxFlg=           0 DoJE=F BraDBF=F KetDBF=F FulRan=T
         wScrn=  0.000000 ICntrl=       600 IOpCl=  0 I1Cent=           0 NGrid=           0
         NMat0=    1 NMatS0=     91 NMatT0=    0 NMatD0=    1 NMtDS0=    0 NMtDT0=    0
 Petite list used in FoFCou.
 CIDS: In Core Option IDoMem=           1.
 Configuration Interaction with single- and double substitutions
 ===============================================================
 Iterations=  50 Convergence= 0.100D-06
 Normalization: A(0)=1
 Iteration Nr.   1
 **********************
 DD1Dir will call FoFMem   1 times, MxPair=        20
 NAB=    10 NAA=     0 NBB=     0.
 Maximum subspace dimension=  5
 A-vector RMS=  1.3772978D-02 Max=  1.4454832D-02 conv= 1.00D-05.
 RLE energy=       -0.1486534546
 E3=        0.19852304D-02        EUMP3=      -0.76030196931D+02
 DE(CI)=     -0.14783433     E(CI)=       -76.020619616    
 NORM(A)=   0.10296834D+01
 SIZE-CONSISTENCY CORRECTION: 
 S.C.C.=   -0.68889735D-02        E(CI,SIZE)= -0.76027646742D+02
 Iteration Nr.   2
 **********************
 DD1Dir will call FoFMem   1 times, MxPair=        20
 NAB=    10 NAA=     0 NBB=     0.
 A-vector RMS=  3.0596901D-03 Max=  7.4228127D-03 conv= 1.00D-05.
 RLE energy=       -0.1584436730
 DE(CI)=     -0.15565576     E(CI)=       -76.028441051    
 NORM(A)=   0.10367744D+01
 SIZE-CONSISTENCY CORRECTION: 
 S.C.C.=   -0.90694086D-02        E(CI,SIZE)= -0.76037431243D+02
 Iteration Nr.   3
 **********************
 DD1Dir will call FoFMem   1 times, MxPair=        20
 NAB=    10 NAA=     0 NBB=     0.
 A-vector RMS=  1.0735577D-03 Max=  1.8068700D-03 conv= 1.00D-05.
 RLE energy=       -0.1592888728
 DE(CI)=     -0.15871379     E(CI)=       -76.031499082    
 NORM(A)=   0.10379902D+01
 SIZE-CONSISTENCY CORRECTION: 
 S.C.C.=   -0.92815227D-02        E(CI,SIZE)= -0.76035905503D+02
 Iteration Nr.   4
 **********************
 DD1Dir will call FoFMem   1 times, MxPair=        20
 NAB=    10 NAA=     0 NBB=     0.
 A-vector RMS=  3.3965458D-04 Max=  7.7890783D-04 conv= 1.00D-05.
 RLE energy=       -0.1591185311
 DE(CI)=     -0.15909162     E(CI)=       -76.031876906    
 NORM(A)=   0.10381100D+01
 SIZE-CONSISTENCY CORRECTION: 
 S.C.C.=   -0.95681042D-02        E(CI,SIZE)= -0.76040414956D+02
 Iteration Nr.   5
 **********************
 DD1Dir will call FoFMem   1 times, MxPair=        20
 NAB=    10 NAA=     0 NBB=     0.
 A-vector RMS=  1.6983348D-04 Max=  3.3596350D-04 conv= 1.00D-05.
 RLE energy=       -0.1591255418
 DE(CI)=     -0.15912736     E(CI)=       -76.031912649    
 NORM(A)=   0.10381716D+01
 SIZE-CONSISTENCY CORRECTION: 
 S.C.C.=   -0.96468510D-02        E(CI,SIZE)= -0.76041522654D+02
 Iteration Nr.   6
 **********************
 DD1Dir will call FoFMem   1 times, MxPair=        20
 NAB=    10 NAA=     0 NBB=     0.
 A-vector RMS=  4.1936767D-05 Max=  1.2578127D-04 conv= 1.00D-05.
 RLE energy=       -0.1591500240
 DE(CI)=     -0.15914751     E(CI)=       -76.031932799    
 NORM(A)=   0.10381847D+01
 SIZE-CONSISTENCY CORRECTION: 
 S.C.C.=   -0.96536850D-02        E(CI,SIZE)= -0.76041584674D+02
 Iteration Nr.   7
 **********************
 DD1Dir will call FoFMem   1 times, MxPair=        20
 NAB=    10 NAA=     0 NBB=     0.
 A-vector RMS=  9.9499238D-06 Max=  2.6028472D-05 conv= 1.00D-05.
 RLE energy=       -0.1591440246
 DE(CI)=     -0.15914365     E(CI)=       -76.031928943    
 NORM(A)=   0.10381801D+01
 SIZE-CONSISTENCY CORRECTION: 
 S.C.C.=   -0.96520035D-02        E(CI,SIZE)= -0.76041575143D+02
 Iteration Nr.   8
 **********************
 DD1Dir will call FoFMem   1 times, MxPair=        20
 NAB=    10 NAA=     0 NBB=     0.
 A-vector RMS=  2.8471203D-06 Max=  5.0196659D-06 conv= 1.00D-05.
 RLE energy=       -0.1591421036
 DE(CI)=     -0.15914242     E(CI)=       -76.031927707    
 NORM(A)=   0.10381791D+01
 SIZE-CONSISTENCY CORRECTION: 
 S.C.C.=   -0.96519754D-02        E(CI,SIZE)= -0.76041579101D+02
 Iteration Nr.   9
 **********************
 DD1Dir will call FoFMem   1 times, MxPair=        20
 NAB=    10 NAA=     0 NBB=     0.
 A-vector RMS=  7.8888749D-07 Max=  1.3331139D-06 conv= 1.00D-05.
 RLE energy=       -0.1591424972
 DE(CI)=     -0.15914246     E(CI)=       -76.031927750    
 NORM(A)=   0.10381793D+01
 SIZE-CONSISTENCY CORRECTION: 
 S.C.C.=   -0.96521049D-02        E(CI,SIZE)= -0.76041580502D+02
 CI/CC converged in    9 iterations to DelEn=-4.25D-08 Conv= 1.00D-07 ErrA1= 7.89D-07 Conv= 1.00D-05
 Wavefunction amplitudes converged. E(Corr)=     -76.031927750    
 ***************************************************************
 Largest amplitude= 9.02D-02
 Discarding MO integrals.
 Leave Link  913 at Fri Feb  6 07:16:42 2026, MaxMem=  1048576000 cpu:               0.6 elap:               0.1
 (Enter /opt/Programs/Gaussian/16RevA.03//g16/l601.exe)
 Copying SCF densities to generalized density rwf, IOpCl= 0 IROHF=0.

 **********************************************************************

            Population analysis using the SCF density.

 **********************************************************************

 Orbital symmetries:
       Occupied  (A1) (A1) (B2) (A1) (B1)
       Virtual   (A1) (B2) (A1) (B2) (B1) (A1) (B2) (A1)
 The electronic state is 1-A1.
 Alpha  occ. eigenvalues --  -20.62036  -1.24670  -0.56676  -0.51450  -0.49749
 Alpha virt. eigenvalues --    0.11516   0.18857   0.93175   0.96948   1.16044
 Alpha virt. eigenvalues --    1.24513   1.37044   1.61486
          Condensed to atoms (all electrons):
               1          2          3
     1  O    8.259734   0.209696   0.209696
     2  H    0.209696   0.465206  -0.014466
     3  H    0.209696  -0.014466   0.465206
 Mulliken charges:
               1
     1  O   -0.679126
     2  H    0.339563
     3  H    0.339563
 Sum of Mulliken charges =   0.00000
 Mulliken charges with hydrogens summed into heavy atoms:
               1
     1  O    0.000000
 Electronic spatial extent (au):  <R**2>=             23.9690
 Charge=              0.0000 electrons
 Dipole moment (field-independent basis, Debye):
    X=             -0.0000    Y=             -0.0000    Z=             -2.6286  Tot=              2.6286
 Quadrupole moment (field-independent basis, Debye-Ang):
   XX=             -7.8512   YY=             -3.7695   ZZ=             -6.0936
   XY=              0.0000   XZ=              0.0000   YZ=             -0.0000
 Traceless Quadrupole moment (field-independent basis, Debye-Ang):
   XX=             -1.9464   YY=              2.1353   ZZ=             -0.1889
   XY=              0.0000   XZ=              0.0000   YZ=             -0.0000
 Octapole moment (field-independent basis, Debye-Ang**2):
  XXX=              0.0000  YYY=             -0.0000  ZZZ=             -1.1567  XYY=             -0.0000
  XXY=             -0.0000  XXZ=             -0.1151  XZZ=             -0.0000  YZZ=              0.0000
  YYZ=             -2.3485  XYZ=             -0.0000
 Hexadecapole moment (field-independent basis, Debye-Ang**3):
 XXXX=             -5.9730 YYYY=             -9.1374 ZZZZ=             -8.8272 XXXY=             -0.0000
 XXXZ=             -0.0000 YYYX=              0.0000 YYYZ=              0.0000 ZZZX=             -0.0000
 ZZZY=              0.0000 XXYY=             -3.2025 XXZZ=             -2.6105 YYZZ=             -2.0365
 XXYZ=             -0.0000 YYXZ=              0.0000 ZZXY=              0.0000
 N-N= 6.876076264268D+00 E-N=-1.937790930422D+02  KE= 7.517298217211D+01
 Symmetry A1   KE= 6.754608326165D+01
 Symmetry A2   KE= 0.000000000000D+00
 Symmetry B1   KE= 4.703089359672D+00
 Symmetry B2   KE= 2.923809550797D+00
 Leave Link  601 at Fri Feb  6 07:16:42 2026, MaxMem=  1048576000 cpu:               0.2 elap:               0.0
 (Enter /opt/Programs/Gaussian/16RevA.03//g16/l9999.exe)
 1\1\GINC-CHOU\SP\RCISD-FC\6-31G\H2O1\RTCHOU\06-Feb-2026\0\\#p CISD/6-3
 1G\\Generated by ChouChem Test Suite\\0,1\O,0,0.,0.,0.\H,0,0.,1.,0.8\H
 ,0,0.,-1.,0.8\\Version=ES64L-G16RevA.03\State=1-A1\HF=-75.8727853\MP2=
 -76.0321822\MP3=-76.0301969\CISD=-76.0319277\RMSD=6.798e-09\PG=C02V [C
 2(O1),SGV(H2)]\\@


 A SUCCESSFUL PURSUIT OF SCIENCE MAKES A MAN THE
 BENEFACTOR OF ALL MANKIND OF EVERY AGE.
   --  JOSEPH PRIESTLEY, "EXPERIMENTS AND
 OBSERVATIONS ON DIFFERENT KINDS OF AIR", 1774
 Job cpu time:       0 days  0 hours  0 minutes  5.6 seconds.
 Elapsed time:       0 days  0 hours  0 minutes  0.7 seconds.
 File lengths (MBytes):  RWF=     19 Int=      0 D2E=      0 Chk=      1 Scr=      1
 Normal termination of Gaussian 16 at Fri Feb  6 07:16:42 2026.
