 Entering Gaussian System, Link 0=g16
 Input=test_g16/HF_6-31G_Q1_UCI.gjf
 Output=test_g16/HF_6-31G_Q1_UCI.log
 Initial command:
 /opt/Programs/Gaussian/16RevA.03//g16/l1.exe "/opt/Programs/Gaussian/16RevA.03/g16/scratch/Gau-247057.inp" -scrdir="/opt/Programs/Gaussian/16RevA.03/g16/scratch/"
 Entering Link 1 = /opt/Programs/Gaussian/16RevA.03//g16/l1.exe PID=    247058.
  
 Copyright (c) 1988,1990,1992,1993,1995,1998,2003,2009,2016,
            Gaussian, Inc.  All Rights Reserved.
  
 This is part of the Gaussian(R) 16 program.  It is based on
 the Gaussian(R) 09 system (copyright 2009, Gaussian, Inc.),
 the Gaussian(R) 03 system (copyright 2003, Gaussian, Inc.),
 the Gaussian(R) 98 system (copyright 1998, Gaussian, Inc.),
 the Gaussian(R) 94 system (copyright 1995, Gaussian, Inc.),
 the Gaussian 92(TM) system (copyright 1992, Gaussian, Inc.),
 the Gaussian 90(TM) system (copyright 1990, Gaussian, Inc.),
 the Gaussian 88(TM) system (copyright 1988, Gaussian, Inc.),
 the Gaussian 86(TM) system (copyright 1986, Carnegie Mellon
 University), and the Gaussian 82(TM) system (copyright 1983,
 Carnegie Mellon University). Gaussian is a federally registered
 trademark of Gaussian, Inc.
  
 This software contains proprietary and confidential information,
 including trade secrets, belonging to Gaussian, Inc.
  
 This software is provided under written license and may be
 used, copied, transmitted, or stored only in accord with that
 written license.
  
 The following legend is applicable only to US Government
 contracts under FAR:
  
                    RESTRICTED RIGHTS LEGEND
  
 Use, reproduction and disclosure by the US Government is
 subject to restrictions as set forth in subparagraphs (a)
 and (c) of the Commercial Computer Software - Restricted
 Rights clause in FAR 52.227-19.
  
 Gaussian, Inc.
 340 Quinnipiac St., Bldg. 40, Wallingford CT 06492
  
  
 ---------------------------------------------------------------
 Warning -- This program may not be used in any manner that
 competes with the business of Gaussian, Inc. or will provide
 assistance to any competitor of Gaussian, Inc.  The licensee
 of this program is prohibited from giving any competitor of
 Gaussian, Inc. access to this program.  By using this program,
 the user acknowledges that Gaussian, Inc. is engaged in the
 business of creating and licensing software in the field of
 computational chemistry and represents and warrants to the
 licensee that it is not a competitor of Gaussian, Inc. and that
 it will not use this program in any manner prohibited above.
 ---------------------------------------------------------------
  

 Cite this work as:
 Gaussian 16, Revision A.03,
 M. J. Frisch, G. W. Trucks, H. B. Schlegel, G. E. Scuseria, 
 M. A. Robb, J. R. Cheeseman, G. Scalmani, V. Barone, 
 G. A. Petersson, H. Nakatsuji, X. Li, M. Caricato, A. V. Marenich, 
 J. Bloino, B. G. Janesko, R. Gomperts, B. Mennucci, H. P. Hratchian, 
 J. V. Ortiz, A. F. Izmaylov, J. L. Sonnenberg, D. Williams-Young, 
 F. Ding, F. Lipparini, F. Egidi, J. Goings, B. Peng, A. Petrone, 
 T. Henderson, D. Ranasinghe, V. G. Zakrzewski, J. Gao, N. Rega, 
 G. Zheng, W. Liang, M. Hada, M. Ehara, K. Toyota, R. Fukuda, 
 J. Hasegawa, M. Ishida, T. Nakajima, Y. Honda, O. Kitao, H. Nakai, 
 T. Vreven, K. Throssell, J. A. Montgomery, Jr., J. E. Peralta, 
 F. Ogliaro, M. J. Bearpark, J. J. Heyd, E. N. Brothers, K. N. Kudin, 
 V. N. Staroverov, T. A. Keith, R. Kobayashi, J. Normand, 
 K. Raghavachari, A. P. Rendell, J. C. Burant, S. S. Iyengar, 
 J. Tomasi, M. Cossi, J. M. Millam, M. Klene, C. Adamo, R. Cammi, 
 J. W. Ochterski, R. L. Martin, K. Morokuma, O. Farkas, 
 J. B. Foresman, and D. J. Fox, Gaussian, Inc., Wallingford CT, 2016.
 
 ******************************************
 Gaussian 16:  ES64L-G16RevA.03 25-Dec-2016
                 6-Feb-2026 
 ******************************************
 %Mem=8000MB
 %NProcShared=8
 Will use up to    8 processors via shared memory.
 -------------
 #p CISD/6-31G
 -------------
 1/38=1,172=1/1;
 2/12=2,17=6,18=5,40=1/2;
 3/5=1,6=6,11=9,25=1,30=1/1,2,3;
 4//1;
 5/5=2,38=5/2;
 8/6=3,9=120000,10=2/1,4;
 9//13;
 6/7=2,8=2,9=2,10=2/1;
 99/5=1,9=1/99;
 Leave Link    1 at Fri Feb  6 07:16:55 2026, MaxMem=  1048576000 cpu:               0.1 elap:               0.0
 (Enter /opt/Programs/Gaussian/16RevA.03//g16/l101.exe)
 --------------------------------
 Generated by ChouChem Test Suite
 --------------------------------
 Symbolic Z-matrix:
 Charge =  1 Multiplicity = 2
 H                     0.        0.        0. 
 F                     0.        0.        1.5 
 
 ITRead=  0  0
 MicOpt= -1 -1
 NAtoms=      2 NQM=        2 NQMF=       0 NMMI=      0 NMMIF=      0
                NMic=       0 NMicF=      0.
                    Isotopes and Nuclear Properties:
 (Nuclear quadrupole moments (NQMom) in fm**2, nuclear magnetic moments (NMagM)
  in nuclear magnetons)

  Atom         1           2
 IAtWgt=           1          19
 AtmWgt=   1.0078250  18.9984032
 NucSpn=           1           1
 AtZEff=  -0.0000000  -0.0000000
 NQMom=    0.0000000   0.0000000
 NMagM=    2.7928460   2.6288670
 AtZNuc=   1.0000000   9.0000000
 Leave Link  101 at Fri Feb  6 07:16:55 2026, MaxMem=  1048576000 cpu:               1.1 elap:               0.1
 (Enter /opt/Programs/Gaussian/16RevA.03//g16/l202.exe)
                          Input orientation:                          
 ---------------------------------------------------------------------
 Center     Atomic      Atomic             Coordinates (Angstroms)
 Number     Number       Type             X           Y           Z
 ---------------------------------------------------------------------
      1          1           0        0.000000    0.000000    0.000000
      2          9           0        0.000000    0.000000    1.500000
 ---------------------------------------------------------------------
 Stoichiometry    FH(1+,2)
 Framework group  C*V[C*(HF)]
 Deg. of freedom     1
 Full point group                 C*V     NOp   4
 Largest Abelian subgroup         C2V     NOp   4
 Largest concise Abelian subgroup C1      NOp   1
                         Standard orientation:                         
 ---------------------------------------------------------------------
 Center     Atomic      Atomic             Coordinates (Angstroms)
 Number     Number       Type             X           Y           Z
 ---------------------------------------------------------------------
      1          1           0        0.000000    0.000000   -1.350000
      2          9           0        0.000000    0.000000    0.150000
 ---------------------------------------------------------------------
 Rotational constants (GHZ):           0.0000000         234.6916601         234.6916601
 Leave Link  202 at Fri Feb  6 07:16:55 2026, MaxMem=  1048576000 cpu:               0.0 elap:               0.0
 (Enter /opt/Programs/Gaussian/16RevA.03//g16/l301.exe)
 Standard basis: 6-31G (6D, 7F)
 Ernie: Thresh=  0.10000D-02 Tol=  0.10000D-05 Strict=F.
 There are     7 symmetry adapted cartesian basis functions of A1  symmetry.
 There are     0 symmetry adapted cartesian basis functions of A2  symmetry.
 There are     2 symmetry adapted cartesian basis functions of B1  symmetry.
 There are     2 symmetry adapted cartesian basis functions of B2  symmetry.
 There are     7 symmetry adapted basis functions of A1  symmetry.
 There are     0 symmetry adapted basis functions of A2  symmetry.
 There are     2 symmetry adapted basis functions of B1  symmetry.
 There are     2 symmetry adapted basis functions of B2  symmetry.
    11 basis functions,    26 primitive gaussians,    11 cartesian basis functions
     5 alpha electrons        4 beta electrons
       nuclear repulsion energy         3.1750632655 Hartrees.
 IExCor=    0 DFT=F Ex=HF Corr=None ExCW=0 ScaHFX=  1.000000
 ScaDFX=  1.000000  1.000000  1.000000  1.000000 ScalE2=  1.000000  1.000000
 IRadAn=      5 IRanWt=     -1 IRanGd=            0 ICorTp=0 IEmpDi=  4
 NAtoms=    2 NActive=    2 NUniq=    2 SFac= 1.00D+00 NAtFMM=   60 NAOKFM=F Big=F
 Integral buffers will be    131072 words long.
 Raffenetti 2 integral format.
 Two-electron integral symmetry is turned on.
 Leave Link  301 at Fri Feb  6 07:16:55 2026, MaxMem=  1048576000 cpu:               0.3 elap:               0.0
 (Enter /opt/Programs/Gaussian/16RevA.03//g16/l302.exe)
 NPDir=0 NMtPBC=     1 NCelOv=     1 NCel=       1 NClECP=     1 NCelD=      1
         NCelK=      1 NCelE2=     1 NClLst=     1 CellRange=     0.0.
 One-electron integrals computed using PRISM.
 One-electron integral symmetry used in STVInt
 NBasis=    11 RedAO= T EigKep=  1.83D-01  NBF=     7     0     2     2
 NBsUse=    11 1.00D-06 EigRej= -1.00D+00 NBFU=     7     0     2     2
 Leave Link  302 at Fri Feb  6 07:16:55 2026, MaxMem=  1048576000 cpu:               0.6 elap:               0.1
 (Enter /opt/Programs/Gaussian/16RevA.03//g16/l303.exe)
 DipDrv:  MaxL=1.
 Leave Link  303 at Fri Feb  6 07:16:55 2026, MaxMem=  1048576000 cpu:               0.2 elap:               0.0
 (Enter /opt/Programs/Gaussian/16RevA.03//g16/l401.exe)
 ExpMin= 1.61D-01 ExpMax= 7.00D+03 ExpMxC= 1.05D+03 IAcc=3 IRadAn=         5 AccDes= 0.00D+00
 Harris functional with IExCor=  205 and IRadAn=       5 diagonalized for initial guess.
 HarFok:  IExCor=  205 AccDes= 0.00D+00 IRadAn=         5 IDoV= 1 UseB2=F ITyADJ=14
 ICtDFT=  3500011 ScaDFX=  1.000000  1.000000  1.000000  1.000000
 FoFCou: FMM=F IPFlag=           0 FMFlag=      100000 FMFlg1=           0
         NFxFlg=           0 DoJE=T BraDBF=F KetDBF=T FulRan=T
         wScrn=  0.000000 ICntrl=       500 IOpCl=  0 I1Cent=   200000004 NGrid=           0
         NMat0=    1 NMatS0=      1 NMatT0=    0 NMatD0=    1 NMtDS0=    0 NMtDT0=    0
 Petite list used in FoFCou.
 Harris En= -99.5007198159615    
 JPrj=0 DoOrth=F DoCkMO=F.
 Initial guess orbital symmetries:
 Alpha Orbitals:
       Occupied  (SG) (SG) (SG) (PI) (PI)
       Virtual   (SG) (SG) (PI) (PI) (SG) (SG)
 Beta  Orbitals:
       Occupied  (SG) (SG) (SG) (PI)
       Virtual   (PI) (SG) (SG) (PI) (PI) (SG) (SG)
 Initial guess <Sx>= 0.0000 <Sy>= 0.0000 <Sz>= 0.5000 <S**2>= 0.7500 S= 0.5000
 Leave Link  401 at Fri Feb  6 07:16:55 2026, MaxMem=  1048576000 cpu:               0.6 elap:               0.1
 (Enter /opt/Programs/Gaussian/16RevA.03//g16/l502.exe)
 Keep R1 and R2 ints in memory in symmetry-blocked form, NReq=1607207.
 FoFCou: FMM=F IPFlag=           0 FMFlag=           0 FMFlg1=           0
         NFxFlg=           0 DoJE=F BraDBF=F KetDBF=F FulRan=T
         wScrn=  0.000000 ICntrl=       600 IOpCl=  0 I1Cent=           0 NGrid=           0
         NMat0=    1 NMatS0=     66 NMatT0=    0 NMatD0=    1 NMtDS0=    0 NMtDT0=    0
 Petite list used in FoFCou.
 UHF open shell SCF:
 Using DIIS extrapolation, IDIIS=  1040.
 NGot=  1048576000 LenX=  1048572366 LenY=  1048571484
 Requested convergence on RMS density matrix=1.00D-08 within 128 cycles.
 Requested convergence on MAX density matrix=1.00D-06.
 Requested convergence on             energy=1.00D-06.
 No special actions if energy rises.

 Cycle   1  Pass 1  IDiag  1:
 E= -99.3958095322872    
 DIIS: error= 6.63D-02 at cycle   1 NSaved=   1.
 NSaved= 1 IEnMin= 1 EnMin= -99.3958095322872     IErMin= 1 ErrMin= 6.63D-02
 ErrMax= 6.63D-02  0.00D+00 EMaxC= 1.00D-01 BMatC= 2.08D-01 BMatP= 2.08D-01
 IDIUse=3 WtCom= 3.37D-01 WtEn= 6.63D-01
 Coeff-Com:  0.100D+01
 Coeff-En:   0.100D+01
 Coeff:      0.100D+01
 Gap=     0.796 Goal=   None    Shift=    0.000
 Gap=     0.766 Goal=   None    Shift=    0.000
 GapD=    0.766 DampG=2.000 DampE=0.500 DampFc=1.0000 IDamp=-1.
 RMSDP=1.42D-02 MaxDP=6.99D-02              OVMax= 8.15D-02

 Cycle   2  Pass 1  IDiag  1:
 E= -99.4173991685800     Delta-E=       -0.021589636293 Rises=F Damp=F
 DIIS: error= 2.56D-02 at cycle   2 NSaved=   2.
 NSaved= 2 IEnMin= 2 EnMin= -99.4173991685800     IErMin= 2 ErrMin= 2.56D-02
 ErrMax= 2.56D-02  0.00D+00 EMaxC= 1.00D-01 BMatC= 2.63D-02 BMatP= 2.08D-01
 IDIUse=3 WtCom= 7.44D-01 WtEn= 2.56D-01
 Coeff-Com:  0.230D+00 0.770D+00
 Coeff-En:   0.000D+00 0.100D+01
 Coeff:      0.171D+00 0.829D+00
 Gap=     0.729 Goal=   None    Shift=    0.000
 Gap=     0.684 Goal=   None    Shift=    0.000
 RMSDP=4.78D-03 MaxDP=3.27D-02 DE=-2.16D-02 OVMax= 2.72D-02

 Cycle   3  Pass 1  IDiag  1:
 E= -99.4217715189323     Delta-E=       -0.004372350352 Rises=F Damp=F
 DIIS: error= 7.48D-03 at cycle   3 NSaved=   3.
 NSaved= 3 IEnMin= 3 EnMin= -99.4217715189323     IErMin= 3 ErrMin= 7.48D-03
 ErrMax= 7.48D-03  0.00D+00 EMaxC= 1.00D-01 BMatC= 1.53D-03 BMatP= 2.63D-02
 IDIUse=3 WtCom= 9.25D-01 WtEn= 7.48D-02
 Coeff-Com: -0.466D-01 0.751D-01 0.972D+00
 Coeff-En:   0.000D+00 0.000D+00 0.100D+01
 Coeff:     -0.431D-01 0.694D-01 0.974D+00
 Gap=     0.748 Goal=   None    Shift=    0.000
 Gap=     0.698 Goal=   None    Shift=    0.000
 RMSDP=1.33D-03 MaxDP=7.75D-03 DE=-4.37D-03 OVMax= 1.20D-02

 Cycle   4  Pass 1  IDiag  1:
 E= -99.4222273243711     Delta-E=       -0.000455805439 Rises=F Damp=F
 DIIS: error= 2.40D-03 at cycle   4 NSaved=   4.
 NSaved= 4 IEnMin= 4 EnMin= -99.4222273243711     IErMin= 4 ErrMin= 2.40D-03
 ErrMax= 2.40D-03  0.00D+00 EMaxC= 1.00D-01 BMatC= 2.08D-04 BMatP= 1.53D-03
 IDIUse=3 WtCom= 9.76D-01 WtEn= 2.40D-02
 Coeff-Com:  0.227D-01-0.106D+00-0.733D+00 0.182D+01
 Coeff-En:   0.000D+00 0.000D+00 0.000D+00 0.100D+01
 Coeff:      0.222D-01-0.104D+00-0.716D+00 0.180D+01
 Gap=     0.751 Goal=   None    Shift=    0.000
 Gap=     0.692 Goal=   None    Shift=    0.000
 RMSDP=1.23D-03 MaxDP=9.31D-03 DE=-4.56D-04 OVMax= 1.29D-02

 Cycle   5  Pass 1  IDiag  1:
 E= -99.4224806959691     Delta-E=       -0.000253371598 Rises=F Damp=F
 DIIS: error= 1.40D-03 at cycle   5 NSaved=   5.
 NSaved= 5 IEnMin= 5 EnMin= -99.4224806959691     IErMin= 5 ErrMin= 1.40D-03
 ErrMax= 1.40D-03  0.00D+00 EMaxC= 1.00D-01 BMatC= 6.48D-05 BMatP= 2.08D-04
 IDIUse=3 WtCom= 9.86D-01 WtEn= 1.40D-02
 Coeff-Com: -0.149D-01 0.128D+00 0.618D+00-0.238D+01 0.265D+01
 Coeff-En:   0.000D+00 0.000D+00 0.000D+00 0.000D+00 0.100D+01
 Coeff:     -0.147D-01 0.126D+00 0.610D+00-0.234D+01 0.262D+01
 Gap=     0.758 Goal=   None    Shift=    0.000
 Gap=     0.685 Goal=   None    Shift=    0.000
 RMSDP=1.44D-03 MaxDP=9.79D-03 DE=-2.53D-04 OVMax= 1.66D-02

 Cycle   6  Pass 1  IDiag  1:
 E= -99.4226288873588     Delta-E=       -0.000148191390 Rises=F Damp=F
 DIIS: error= 4.55D-04 at cycle   6 NSaved=   6.
 NSaved= 6 IEnMin= 6 EnMin= -99.4226288873588     IErMin= 6 ErrMin= 4.55D-04
 ErrMax= 4.55D-04  0.00D+00 EMaxC= 1.00D-01 BMatC= 7.05D-06 BMatP= 6.48D-05
 IDIUse=3 WtCom= 9.95D-01 WtEn= 4.55D-03
 Coeff-Com:  0.861D-02-0.851D-01-0.405D+00 0.166D+01-0.227D+01 0.210D+01
 Coeff-En:   0.000D+00 0.000D+00 0.000D+00 0.000D+00 0.000D+00 0.100D+01
 Coeff:      0.857D-02-0.847D-01-0.403D+00 0.165D+01-0.226D+01 0.209D+01
 Gap=     0.761 Goal=   None    Shift=    0.000
 Gap=     0.683 Goal=   None    Shift=    0.000
 RMSDP=6.26D-04 MaxDP=4.20D-03 DE=-1.48D-04 OVMax= 7.27D-03

 Cycle   7  Pass 1  IDiag  1:
 E= -99.4226453884523     Delta-E=       -0.000016501093 Rises=F Damp=F
 DIIS: error= 5.72D-05 at cycle   7 NSaved=   7.
 NSaved= 7 IEnMin= 7 EnMin= -99.4226453884523     IErMin= 7 ErrMin= 5.72D-05
 ErrMax= 5.72D-05  0.00D+00 EMaxC= 1.00D-01 BMatC= 6.68D-08 BMatP= 7.05D-06
 IDIUse=1 WtCom= 1.00D+00 WtEn= 0.00D+00
 Coeff-Com: -0.351D-02 0.349D-01 0.168D+00-0.687D+00 0.954D+00-0.932D+00
 Coeff-Com:  0.147D+01
 Coeff:     -0.351D-02 0.349D-01 0.168D+00-0.687D+00 0.954D+00-0.932D+00
 Coeff:      0.147D+01
 Gap=     0.761 Goal=   None    Shift=    0.000
 Gap=     0.683 Goal=   None    Shift=    0.000
 RMSDP=2.32D-05 MaxDP=1.49D-04 DE=-1.65D-05 OVMax= 2.55D-04

 Cycle   8  Pass 1  IDiag  1:
 E= -99.4226454308770     Delta-E=       -0.000000042425 Rises=F Damp=F
 DIIS: error= 1.05D-05 at cycle   8 NSaved=   8.
 NSaved= 8 IEnMin= 8 EnMin= -99.4226454308770     IErMin= 8 ErrMin= 1.05D-05
 ErrMax= 1.05D-05  0.00D+00 EMaxC= 1.00D-01 BMatC= 2.21D-09 BMatP= 6.68D-08
 IDIUse=1 WtCom= 1.00D+00 WtEn= 0.00D+00
 Coeff-Com:  0.377D-03-0.348D-02-0.184D-01 0.711D-01-0.978D-01 0.948D-01
 Coeff-Com: -0.242D+00 0.120D+01
 Coeff:      0.377D-03-0.348D-02-0.184D-01 0.711D-01-0.978D-01 0.948D-01
 Coeff:     -0.242D+00 0.120D+01
 Gap=     0.761 Goal=   None    Shift=    0.000
 Gap=     0.683 Goal=   None    Shift=    0.000
 RMSDP=4.71D-06 MaxDP=2.86D-05 DE=-4.24D-08 OVMax= 5.35D-05

 Cycle   9  Pass 1  IDiag  1:
 E= -99.4226454320053     Delta-E=       -0.000000001128 Rises=F Damp=F
 DIIS: error= 6.15D-07 at cycle   9 NSaved=   9.
 NSaved= 9 IEnMin= 9 EnMin= -99.4226454320053     IErMin= 9 ErrMin= 6.15D-07
 ErrMax= 6.15D-07  0.00D+00 EMaxC= 1.00D-01 BMatC= 1.39D-11 BMatP= 2.21D-09
 IDIUse=1 WtCom= 1.00D+00 WtEn= 0.00D+00
 Coeff-Com: -0.183D-04 0.164D-03 0.101D-02-0.352D-02 0.492D-02-0.446D-02
 Coeff-Com:  0.233D-01-0.225D+00 0.120D+01
 Coeff:     -0.183D-04 0.164D-03 0.101D-02-0.352D-02 0.492D-02-0.446D-02
 Coeff:      0.233D-01-0.225D+00 0.120D+01
 Gap=     0.761 Goal=   None    Shift=    0.000
 Gap=     0.683 Goal=   None    Shift=    0.000
 RMSDP=2.98D-07 MaxDP=1.54D-06 DE=-1.13D-09 OVMax= 3.87D-06

 Cycle  10  Pass 1  IDiag  1:
 E= -99.4226454320141     Delta-E=       -0.000000000009 Rises=F Damp=F
 DIIS: error= 1.02D-07 at cycle  10 NSaved=  10.
 NSaved=10 IEnMin=10 EnMin= -99.4226454320141     IErMin=10 ErrMin= 1.02D-07
 ErrMax= 1.02D-07  0.00D+00 EMaxC= 1.00D-01 BMatC= 4.27D-13 BMatP= 1.39D-11
 IDIUse=1 WtCom= 1.00D+00 WtEn= 0.00D+00
 Coeff-Com:  0.349D-05-0.270D-04-0.220D-03 0.639D-03-0.866D-03 0.673D-03
 Coeff-Com: -0.681D-02 0.796D-01-0.478D+00 0.141D+01
 Coeff:      0.349D-05-0.270D-04-0.220D-03 0.639D-03-0.866D-03 0.673D-03
 Coeff:     -0.681D-02 0.796D-01-0.478D+00 0.141D+01
 Gap=     0.761 Goal=   None    Shift=    0.000
 Gap=     0.683 Goal=   None    Shift=    0.000
 RMSDP=4.26D-08 MaxDP=2.69D-07 DE=-8.74D-12 OVMax= 4.29D-07

 Cycle  11  Pass 1  IDiag  1:
 E= -99.4226454320144     Delta-E=       -0.000000000000 Rises=F Damp=F
 DIIS: error= 3.38D-08 at cycle  11 NSaved=  11.
 NSaved=11 IEnMin=11 EnMin= -99.4226454320144     IErMin=11 ErrMin= 3.38D-08
 ErrMax= 3.38D-08  0.00D+00 EMaxC= 1.00D-01 BMatC= 2.39D-14 BMatP= 4.27D-13
 IDIUse=1 WtCom= 1.00D+00 WtEn= 0.00D+00
 Coeff-Com: -0.699D-06 0.700D-05 0.498D-04-0.148D-03 0.208D-03-0.151D-03
 Coeff-Com:  0.157D-02-0.196D-01 0.129D+00-0.495D+00 0.138D+01
 Coeff:     -0.699D-06 0.700D-05 0.498D-04-0.148D-03 0.208D-03-0.151D-03
 Coeff:      0.157D-02-0.196D-01 0.129D+00-0.495D+00 0.138D+01
 Gap=     0.761 Goal=   None    Shift=    0.000
 Gap=     0.683 Goal=   None    Shift=    0.000
 RMSDP=8.25D-09 MaxDP=4.66D-08 DE=-2.84D-13 OVMax= 7.57D-08

 SCF Done:  E(UHF) =  -99.4226454320     A.U. after   11 cycles
            NFock= 11  Conv=0.83D-08     -V/T= 2.0023
 <Sx>= 0.0000 <Sy>= 0.0000 <Sz>= 0.5000 <S**2>= 0.7654 S= 0.5077
 <L.S>=  0.00000000000    
 KE= 9.919569982589D+01 PE=-2.411078723375D+02 EE= 3.931446381411D+01
 Annihilation of the first spin contaminant:
 S**2 before annihilation     0.7654,   after     0.7500
 Leave Link  502 at Fri Feb  6 07:16:55 2026, MaxMem=  1048576000 cpu:               0.6 elap:               0.1
 (Enter /opt/Programs/Gaussian/16RevA.03//g16/l801.exe)
 Windowed orbitals will be sorted by symmetry type.
 ExpMin= 1.61D-01 ExpMax= 7.00D+03 ExpMxC= 1.05D+03 IAcc=3 IRadAn=         5 AccDes= 0.00D+00
 HarFok:  IExCor=  205 AccDes= 0.00D+00 IRadAn=         5 IDoV=-2 UseB2=F ITyADJ=14
 ICtDFT= 12500011 ScaDFX=  1.000000  1.000000  1.000000  1.000000
 Largest valence mixing into a core orbital is  2.34D-05
 Largest core mixing into a valence orbital is  7.53D-06
 Largest valence mixing into a core orbital is  4.89D-05
 Largest core mixing into a valence orbital is  2.23D-05
 Range of M.O.s used for correlation:     2    11
 NBasis=    11 NAE=     5 NBE=     4 NFC=     1 NFV=     0
 NROrb=     10 NOA=     4 NOB=     3 NVA=     6 NVB=     7
 Leave Link  801 at Fri Feb  6 07:16:55 2026, MaxMem=  1048576000 cpu:               0.3 elap:               0.0
 (Enter /opt/Programs/Gaussian/16RevA.03//g16/l804.exe)
 Open-shell transformation, MDV=  1048576000 ITran=3 ISComp=2.
 Unit  1 TFree=          9400 TCopy=        116418.
 Semi-Direct transformation.
 ModeAB=           2 MOrb=             4 LenV=    1048453741
 LASXX=          243 LTotXX=         243 LenRXX=         243
 LTotAB=         393 MaxLAS=        2640 LenRXY=        2640
 NonZer=        3120 LenScr=      785920 LnRSAI=           0
 LnScr1=           0 LExtra=           0 Total=       788803
 MaxDsk=          -1 SrtSym=           F ITran=            3
 DoSDTr:  NPSUse=  8
 JobTyp=1 Pass  1:  I=   1 to   4.
 (rs|ai) integrals will be sorted in core.
 Complete sort for first half transformation.
 First half transformation complete.
 Complete sort for second half transformation.
 Second half transformation complete.
 ModeAB=           2 MOrb=             3 LenV=    1048453741
 LASXX=          177 LTotXX=         177 LenRXX=        1980
 LTotAB=          56 MaxLAS=        1980 LenRXY=          56
 NonZer=        2340 LenScr=      785920 LnRSAI=           0
 LnScr1=           0 LExtra=           0 Total=       787956
 MaxDsk=          -1 SrtSym=           F ITran=            3
 DoSDTr:  NPSUse=  8
 JobTyp=2 Pass  1:  I=   1 to   3.
 (rs|ai) integrals will be sorted in core.
 Complete sort for first half transformation.
 First half transformation complete.
 Complete sort for second half transformation.
 Second half transformation complete.
 Spin components of T(2) and E(2):
     alpha-alpha T2 =       0.3415303476D-02 E2=     -0.1474929962D-01
     alpha-beta  T2 =       0.1874911971D-01 E2=     -0.6867643662D-01
     beta-beta   T2 =       0.1937537160D-02 E2=     -0.7779927847D-02
 ANorm=    0.1011979229D+01
 E2 =    -0.9120566408D-01 EUMP2 =    -0.99513851096097D+02
 (S**2,0)=  0.76543D+00           (S**2,1)=  0.76044D+00
 E(PUHF)=      -0.99424532341D+02        E(PMP2)=      -0.99515433390D+02
 Leave Link  804 at Fri Feb  6 07:16:55 2026, MaxMem=  1048576000 cpu:               0.4 elap:               0.0
 (Enter /opt/Programs/Gaussian/16RevA.03//g16/l913.exe)
 CIDS:  MDV=  1048576000.
 Frozen-core window:  NFC=   1 NFV=   0.
 IFCWin=0 IBDFC=1 NFBD=     0     0 NFCmp=     0     0 NFFFC=     0     0
 Using original routines for 1st iteration.
 Using original routines for 2nd and later iterations.
 Keep R2 and R3 ints in memory in symmetry-blocked form, NReq=1609669.
 FoFCou: FMM=F IPFlag=           0 FMFlag=           0 FMFlg1=           0
         NFxFlg=           0 DoJE=F BraDBF=F KetDBF=F FulRan=T
         wScrn=  0.000000 ICntrl=       600 IOpCl=  0 I1Cent=           0 NGrid=           0
         NMat0=    1 NMatS0=     66 NMatT0=    0 NMatD0=    1 NMtDS0=    0 NMtDT0=    0
 Petite list used in FoFCou.
 CIDS: In Core Option IDoMem=           1.
 Configuration Interaction with single- and double substitutions
 ===============================================================
 Iterations=  50 Convergence= 0.100D-06
 Normalization: A(0)=1
 Iteration Nr.   1
 **********************
 DD1Dir will call FoFMem   1 times, MxPair=        34
 NAB=    12 NAA=     6 NBB=     3.
 E(PMP3)=      -0.99517929533D+02
 Maximum subspace dimension=  5
 A-vector RMS=  1.4986882D-02 Max=  3.2960422D-02 conv= 1.00D-05.
 RLE energy=       -0.0918203724
 E3=       -0.28055753D-02        EUMP3=      -0.99516656671D+02
 DE(CI)=     -0.91816279E-01 E(CI)=       -99.514461711    
 NORM(A)=   0.10130863D+01
 SIZE-CONSISTENCY CORRECTION: 
 S.C.C.=   -0.17468468D-02        E(CI,SIZE)= -0.99516190989D+02
 Iteration Nr.   2
 **********************
 DD1Dir will call FoFMem   1 times, MxPair=        34
 NAB=    12 NAA=     6 NBB=     3.
 A-vector RMS=  3.0978476D-03 Max=  1.1829456D-02 conv= 1.00D-05.
 RLE energy=       -0.0956365261
 DE(CI)=     -0.95018892E-01 E(CI)=       -99.517664324    
 NORM(A)=   0.10153359D+01
 SIZE-CONSISTENCY CORRECTION: 
 S.C.C.=   -0.21354338D-02        E(CI,SIZE)= -0.99520247861D+02
 Iteration Nr.   3
 **********************
 DD1Dir will call FoFMem   1 times, MxPair=        34
 NAB=    12 NAA=     6 NBB=     3.
 A-vector RMS=  2.8527814D-03 Max=  8.1942255D-03 conv= 1.00D-05.
 RLE energy=       -0.0966198287
 DE(CI)=     -0.95700795E-01 E(CI)=       -99.518346227    
 NORM(A)=   0.10170300D+01
 SIZE-CONSISTENCY CORRECTION: 
 S.C.C.=   -0.23702842D-02        E(CI,SIZE)= -0.99520222547D+02
 Iteration Nr.   4
 **********************
 DD1Dir will call FoFMem   1 times, MxPair=        34
 NAB=    12 NAA=     6 NBB=     3.
 A-vector RMS=  7.5597575D-04 Max=  3.4083903D-03 conv= 1.00D-05.
 RLE energy=       -0.0968388237
 DE(CI)=     -0.96609275E-01 E(CI)=       -99.519254707    
 NORM(A)=   0.10179107D+01
 SIZE-CONSISTENCY CORRECTION: 
 S.C.C.=   -0.24896248D-02        E(CI,SIZE)= -0.99520105232D+02
 Iteration Nr.   5
 **********************
 DD1Dir will call FoFMem   1 times, MxPair=        34
 NAB=    12 NAA=     6 NBB=     3.
 A-vector RMS=  3.8155044D-04 Max=  1.8872992D-03 conv= 1.00D-05.
 RLE energy=       -0.0968628488
 DE(CI)=     -0.96817755E-01 E(CI)=       -99.519463187    
 NORM(A)=   0.10181924D+01
 SIZE-CONSISTENCY CORRECTION: 
 S.C.C.=   -0.25680445D-02        E(CI,SIZE)= -0.99521621537D+02
 Iteration Nr.   6
 **********************
 DD1Dir will call FoFMem   1 times, MxPair=        34
 NAB=    12 NAA=     6 NBB=     3.
 A-vector RMS=  2.6298259D-04 Max=  7.3172803D-04 conv= 1.00D-05.
 RLE energy=       -0.0968535004
 DE(CI)=     -0.96871924E-01 E(CI)=       -99.519517356    
 NORM(A)=   0.10182273D+01
 SIZE-CONSISTENCY CORRECTION: 
 S.C.C.=   -0.25834138D-02        E(CI,SIZE)= -0.99522023619D+02
 Iteration Nr.   7
 **********************
 DD1Dir will call FoFMem   1 times, MxPair=        34
 NAB=    12 NAA=     6 NBB=     3.
 A-vector RMS=  1.1347648D-04 Max=  3.1742229D-04 conv= 1.00D-05.
 RLE energy=       -0.0968908593
 DE(CI)=     -0.96884692E-01 E(CI)=       -99.519530124    
 NORM(A)=   0.10182230D+01
 SIZE-CONSISTENCY CORRECTION: 
 S.C.C.=   -0.25862148D-02        E(CI,SIZE)= -0.99522155026D+02
 Iteration Nr.   8
 **********************
 DD1Dir will call FoFMem   1 times, MxPair=        34
 NAB=    12 NAA=     6 NBB=     3.
 A-vector RMS=  3.3119353D-05 Max=  6.1147445D-05 conv= 1.00D-05.
 RLE energy=       -0.0968849569
 DE(CI)=     -0.96885086E-01 E(CI)=       -99.519530518    
 NORM(A)=   0.10182182D+01
 SIZE-CONSISTENCY CORRECTION: 
 S.C.C.=   -0.25842678D-02        E(CI,SIZE)= -0.99522106218D+02
 Iteration Nr.   9
 **********************
 DD1Dir will call FoFMem   1 times, MxPair=        34
 NAB=    12 NAA=     6 NBB=     3.
 A-vector RMS=  1.6397595D-05 Max=  4.4651971D-05 conv= 1.00D-05.
 RLE energy=       -0.0968892041
 DE(CI)=     -0.96888450E-01 E(CI)=       -99.519533883    
 NORM(A)=   0.10182179D+01
 SIZE-CONSISTENCY CORRECTION: 
 S.C.C.=   -0.25845601D-02        E(CI,SIZE)= -0.99522118694D+02
 Iteration Nr.  10
 **********************
 DD1Dir will call FoFMem   1 times, MxPair=        34
 NAB=    12 NAA=     6 NBB=     3.
 A-vector RMS=  7.3912313D-06 Max=  2.4398022D-05 conv= 1.00D-05.
 RLE energy=       -0.0968880315
 DE(CI)=     -0.96887687E-01 E(CI)=       -99.519533119    
 NORM(A)=   0.10182175D+01
 SIZE-CONSISTENCY CORRECTION: 
 S.C.C.=   -0.25844570D-02        E(CI,SIZE)= -0.99522116896D+02
 Iteration Nr.  11
 **********************
 DD1Dir will call FoFMem   1 times, MxPair=        34
 NAB=    12 NAA=     6 NBB=     3.
 A-vector RMS=  2.8665056D-06 Max=  7.3233416D-06 conv= 1.00D-05.
 RLE energy=       -0.0968882192
 DE(CI)=     -0.96888280E-01 E(CI)=       -99.519533712    
 NORM(A)=   0.10182180D+01
 SIZE-CONSISTENCY CORRECTION: 
 S.C.C.=   -0.25845396D-02        E(CI,SIZE)= -0.99522117769D+02
 Iteration Nr.  12
 **********************
 DD1Dir will call FoFMem   1 times, MxPair=        34
 NAB=    12 NAA=     6 NBB=     3.
 A-vector RMS=  9.6714891D-07 Max=  2.6831038D-06 conv= 1.00D-05.
 RLE energy=       -0.0968882883
 DE(CI)=     -0.96888237E-01 E(CI)=       -99.519533669    
 NORM(A)=   0.10182183D+01
 SIZE-CONSISTENCY CORRECTION: 
 S.C.C.=   -0.25846116D-02        E(CI,SIZE)= -0.99522118623D+02
 CI/CC converged in   12 iterations to DelEn= 4.30D-08 Conv= 1.00D-07 ErrA1= 9.67D-07 Conv= 1.00D-05
 Wavefunction amplitudes converged. E(Corr)=     -99.519533669    
 ***************************************************************
 Largest amplitude= 7.99D-02

 S**2, projected HF & approx projected MPn energies after annihilation of
 unwanted spin states (see manual for definitions):

 spins       (S**2,0) (S**2,1)    PUHF        PMP2        PMP3        PMP4
 annihilated
 s+1         0.74998  0.75000  -99.424532  -99.515433  -99.517930
 s+1,s+2     0.75000  0.75000  -99.424528  -99.515430  -99.517927
 s+1 to s+3  0.75000  0.75000  -99.424528  -99.515430  -99.517927

 Discarding MO integrals.
 Leave Link  913 at Fri Feb  6 07:16:55 2026, MaxMem=  1048576000 cpu:               0.7 elap:               0.1
 (Enter /opt/Programs/Gaussian/16RevA.03//g16/l601.exe)
 Copying SCF densities to generalized density rwf, IOpCl= 1 IROHF=0.

 **********************************************************************

            Population analysis using the SCF density.

 **********************************************************************

 Orbital symmetries:
 Alpha Orbitals:
       Occupied  (SG) (SG) (PI) (SG) (PI)
       Virtual   (SG) (SG) (PI) (PI) (SG) (SG)
 Beta  Orbitals:
       Occupied  (SG) (SG) (?A) (SG)
       Virtual   (SG) (?A) (SG) (?A) (SG) (?A) (SG)
 Unable to determine electronic state:  an orbital has unidentified symmetry.
 Alpha  occ. eigenvalues --  -26.85550  -2.08510  -1.24137  -1.15341  -1.13777
 Alpha virt. eigenvalues --   -0.37709   0.51682   0.98495   1.05033   1.16041
 Alpha virt. eigenvalues --    1.28813
  Beta  occ. eigenvalues --  -26.79905  -1.87443  -1.07383  -1.06277
  Beta virt. eigenvalues --   -0.38016  -0.30434   0.50499   1.07734   1.20185
  Beta virt. eigenvalues --    1.20405   1.34770
          Condensed to atoms (all electrons):
               1          2
     1  H    0.111598   0.086565
     2  F    0.086565   8.715272
          Atomic-Atomic Spin Densities.
               1          2
     1  H   -0.050098  -0.022461
     2  F   -0.022461   1.095019
 Mulliken charges and spin densities:
               1          2
     1  H    0.801837  -0.072558
     2  F    0.198163   1.072558
 Sum of Mulliken charges =   1.00000   1.00000
 Mulliken charges and spin densities with hydrogens summed into heavy atoms:
               1          2
     2  F    1.000000   1.000000
 Electronic spatial extent (au):  <R**2>=             11.5891
 Charge=              1.0000 electrons
 Dipole moment (field-independent basis, Debye):
    X=              0.0000    Y=              0.0000    Z=             -5.0084  Tot=              5.0084
 Quadrupole moment (field-independent basis, Debye-Ang):
   XX=             -4.6869   YY=             -3.8843   ZZ=              2.7100
   XY=              0.0000   XZ=              0.0000   YZ=              0.0000
 Traceless Quadrupole moment (field-independent basis, Debye-Ang):
   XX=             -2.7332   YY=             -1.9305   ZZ=              4.6637
   XY=              0.0000   XZ=              0.0000   YZ=              0.0000
 Octapole moment (field-independent basis, Debye-Ang**2):
  XXX=              0.0000  YYY=              0.0000  ZZZ=            -11.2355  XYY=              0.0000
  XXY=              0.0000  XXZ=             -0.4014  XZZ=              0.0000  YZZ=              0.0000
  YYZ=             -0.2810  XYZ=              0.0000
 Hexadecapole moment (field-independent basis, Debye-Ang**3):
 XXXX=             -2.4660 YYYY=             -1.8302 ZZZZ=              9.2014 XXXY=              0.0000
 XXXZ=              0.0000 YYYX=              0.0000 YYYZ=              0.0000 ZZZX=              0.0000
 ZZZY=              0.0000 XXYY=             -0.7160 XXZZ=             -1.1851 YYZZ=             -1.0611
 XXYZ=              0.0000 YYXZ=              0.0000 ZZXY=              0.0000
 N-N= 3.175063265520D+00 E-N=-2.411078726937D+02  KE= 9.919569982589D+01
 Symmetry A1   KE= 8.863158068811D+01
 Symmetry A2   KE= 0.000000000000D+00
 Symmetry B1   KE= 6.926723984283D+00
 Symmetry B2   KE= 3.637395153494D+00
 Symmetry A1   SP=-3.952606379832D-15
 Symmetry A2   SP= 0.000000000000D+00
 Symmetry B1   SP= 5.431570998129D-17
 Symmetry B2   SP= 1.000000000000D+00
 Leave Link  601 at Fri Feb  6 07:16:56 2026, MaxMem=  1048576000 cpu:               0.2 elap:               0.0
 (Enter /opt/Programs/Gaussian/16RevA.03//g16/l9999.exe)
 1\1\GINC-CHOU\SP\UCISD-FC\6-31G\F1H1(1+,2)\RTCHOU\06-Feb-2026\0\\#p CI
 SD/6-31G\\Generated by ChouChem Test Suite\\1,2\H,0,0.,0.,0.\F,0,0.,0.
 ,1.5\\Version=ES64L-G16RevA.03\HF=-99.4226454\MP2=-99.5138511\MP3=-99.
 5166567\PUHF=-99.4245323\PMP2-0=-99.5154334\PMP3-0=-99.5179295\CISD=-9
 9.5195337\S2=0.765427\S2-1=0.760441\S2A=0.750026\RMSD=8.253e-09\PG=C*V
  [C*(H1F1)]\\@


 Happiness is a conscious choice, not an automatic response.
 -- Mildred Barthel
 Job cpu time:       0 days  0 hours  0 minutes  5.4 seconds.
 Elapsed time:       0 days  0 hours  0 minutes  0.7 seconds.
 File lengths (MBytes):  RWF=     13 Int=      0 D2E=      0 Chk=      1 Scr=      1
 Normal termination of Gaussian 16 at Fri Feb  6 07:16:56 2026.
