 Entering Gaussian System, Link 0=g16
 Input=test_g16/HF_Exp_STO-3G_Q1_UCCSD.gjf
 Output=test_g16/HF_Exp_STO-3G_Q1_UCCSD.log
 Initial command:
 /opt/Programs/Gaussian/16RevA.03//g16/l1.exe "/opt/Programs/Gaussian/16RevA.03/g16/scratch/Gau-248198.inp" -scrdir="/opt/Programs/Gaussian/16RevA.03/g16/scratch/"
 Entering Link 1 = /opt/Programs/Gaussian/16RevA.03//g16/l1.exe PID=    248199.
  
 Copyright (c) 1988,1990,1992,1993,1995,1998,2003,2009,2016,
            Gaussian, Inc.  All Rights Reserved.
  
 This is part of the Gaussian(R) 16 program.  It is based on
 the Gaussian(R) 09 system (copyright 2009, Gaussian, Inc.),
 the Gaussian(R) 03 system (copyright 2003, Gaussian, Inc.),
 the Gaussian(R) 98 system (copyright 1998, Gaussian, Inc.),
 the Gaussian(R) 94 system (copyright 1995, Gaussian, Inc.),
 the Gaussian 92(TM) system (copyright 1992, Gaussian, Inc.),
 the Gaussian 90(TM) system (copyright 1990, Gaussian, Inc.),
 the Gaussian 88(TM) system (copyright 1988, Gaussian, Inc.),
 the Gaussian 86(TM) system (copyright 1986, Carnegie Mellon
 University), and the Gaussian 82(TM) system (copyright 1983,
 Carnegie Mellon University). Gaussian is a federally registered
 trademark of Gaussian, Inc.
  
 This software contains proprietary and confidential information,
 including trade secrets, belonging to Gaussian, Inc.
  
 This software is provided under written license and may be
 used, copied, transmitted, or stored only in accord with that
 written license.
  
 The following legend is applicable only to US Government
 contracts under FAR:
  
                    RESTRICTED RIGHTS LEGEND
  
 Use, reproduction and disclosure by the US Government is
 subject to restrictions as set forth in subparagraphs (a)
 and (c) of the Commercial Computer Software - Restricted
 Rights clause in FAR 52.227-19.
  
 Gaussian, Inc.
 340 Quinnipiac St., Bldg. 40, Wallingford CT 06492
  
  
 ---------------------------------------------------------------
 Warning -- This program may not be used in any manner that
 competes with the business of Gaussian, Inc. or will provide
 assistance to any competitor of Gaussian, Inc.  The licensee
 of this program is prohibited from giving any competitor of
 Gaussian, Inc. access to this program.  By using this program,
 the user acknowledges that Gaussian, Inc. is engaged in the
 business of creating and licensing software in the field of
 computational chemistry and represents and warrants to the
 licensee that it is not a competitor of Gaussian, Inc. and that
 it will not use this program in any manner prohibited above.
 ---------------------------------------------------------------
  

 Cite this work as:
 Gaussian 16, Revision A.03,
 M. J. Frisch, G. W. Trucks, H. B. Schlegel, G. E. Scuseria, 
 M. A. Robb, J. R. Cheeseman, G. Scalmani, V. Barone, 
 G. A. Petersson, H. Nakatsuji, X. Li, M. Caricato, A. V. Marenich, 
 J. Bloino, B. G. Janesko, R. Gomperts, B. Mennucci, H. P. Hratchian, 
 J. V. Ortiz, A. F. Izmaylov, J. L. Sonnenberg, D. Williams-Young, 
 F. Ding, F. Lipparini, F. Egidi, J. Goings, B. Peng, A. Petrone, 
 T. Henderson, D. Ranasinghe, V. G. Zakrzewski, J. Gao, N. Rega, 
 G. Zheng, W. Liang, M. Hada, M. Ehara, K. Toyota, R. Fukuda, 
 J. Hasegawa, M. Ishida, T. Nakajima, Y. Honda, O. Kitao, H. Nakai, 
 T. Vreven, K. Throssell, J. A. Montgomery, Jr., J. E. Peralta, 
 F. Ogliaro, M. J. Bearpark, J. J. Heyd, E. N. Brothers, K. N. Kudin, 
 V. N. Staroverov, T. A. Keith, R. Kobayashi, J. Normand, 
 K. Raghavachari, A. P. Rendell, J. C. Burant, S. S. Iyengar, 
 J. Tomasi, M. Cossi, J. M. Millam, M. Klene, C. Adamo, R. Cammi, 
 J. W. Ochterski, R. L. Martin, K. Morokuma, O. Farkas, 
 J. B. Foresman, and D. J. Fox, Gaussian, Inc., Wallingford CT, 2016.
 
 ******************************************
 Gaussian 16:  ES64L-G16RevA.03 25-Dec-2016
                 6-Feb-2026 
 ******************************************
 %Mem=8000MB
 %NProcShared=8
 Will use up to    8 processors via shared memory.
 --------------
 #p CCSD/STO-3G
 --------------
 1/38=1,172=1/1;
 2/12=2,17=6,18=5,40=1/2;
 3/6=3,11=9,25=1,30=1/1,2,3;
 4//1;
 5/5=2,38=5/2;
 8/6=4,9=120000,10=1/1,4;
 9/5=7/13;
 6/7=2,8=2,9=2,10=2/1;
 99/5=1,9=1/99;
 Leave Link    1 at Fri Feb  6 07:17:04 2026, MaxMem=  1048576000 cpu:               0.2 elap:               0.0
 (Enter /opt/Programs/Gaussian/16RevA.03//g16/l101.exe)
 --------------------------------
 Generated by ChouChem Test Suite
 --------------------------------
 Symbolic Z-matrix:
 Charge =  1 Multiplicity = 2
 H                     0.        0.        0. 
 F                     0.        0.        0.9168 
 
 ITRead=  0  0
 MicOpt= -1 -1
 NAtoms=      2 NQM=        2 NQMF=       0 NMMI=      0 NMMIF=      0
                NMic=       0 NMicF=      0.
                    Isotopes and Nuclear Properties:
 (Nuclear quadrupole moments (NQMom) in fm**2, nuclear magnetic moments (NMagM)
  in nuclear magnetons)

  Atom         1           2
 IAtWgt=           1          19
 AtmWgt=   1.0078250  18.9984032
 NucSpn=           1           1
 AtZEff=  -0.0000000  -0.0000000
 NQMom=    0.0000000   0.0000000
 NMagM=    2.7928460   2.6288670
 AtZNuc=   1.0000000   9.0000000
 Leave Link  101 at Fri Feb  6 07:17:04 2026, MaxMem=  1048576000 cpu:               1.2 elap:               0.2
 (Enter /opt/Programs/Gaussian/16RevA.03//g16/l202.exe)
                          Input orientation:                          
 ---------------------------------------------------------------------
 Center     Atomic      Atomic             Coordinates (Angstroms)
 Number     Number       Type             X           Y           Z
 ---------------------------------------------------------------------
      1          1           0        0.000000    0.000000    0.000000
      2          9           0        0.000000    0.000000    0.916800
 ---------------------------------------------------------------------
 Stoichiometry    FH(1+,2)
 Framework group  C*V[C*(HF)]
 Deg. of freedom     1
 Full point group                 C*V     NOp   4
 Largest Abelian subgroup         C2V     NOp   4
 Largest concise Abelian subgroup C1      NOp   1
                         Standard orientation:                         
 ---------------------------------------------------------------------
 Center     Atomic      Atomic             Coordinates (Angstroms)
 Number     Number       Type             X           Y           Z
 ---------------------------------------------------------------------
      1          1           0        0.000000    0.000000   -0.825120
      2          9           0        0.000000    0.000000    0.091680
 ---------------------------------------------------------------------
 Rotational constants (GHZ):           0.0000000         628.2477847         628.2477847
 Leave Link  202 at Fri Feb  6 07:17:04 2026, MaxMem=  1048576000 cpu:               0.0 elap:               0.0
 (Enter /opt/Programs/Gaussian/16RevA.03//g16/l301.exe)
 Standard basis: STO-3G (5D, 7F)
 Ernie: Thresh=  0.10000D-02 Tol=  0.10000D-05 Strict=F.
 There are     4 symmetry adapted cartesian basis functions of A1  symmetry.
 There are     0 symmetry adapted cartesian basis functions of A2  symmetry.
 There are     1 symmetry adapted cartesian basis functions of B1  symmetry.
 There are     1 symmetry adapted cartesian basis functions of B2  symmetry.
 There are     4 symmetry adapted basis functions of A1  symmetry.
 There are     0 symmetry adapted basis functions of A2  symmetry.
 There are     1 symmetry adapted basis functions of B1  symmetry.
 There are     1 symmetry adapted basis functions of B2  symmetry.
     6 basis functions,    18 primitive gaussians,     6 cartesian basis functions
     5 alpha electrons        4 beta electrons
       nuclear repulsion energy         5.1948024632 Hartrees.
 IExCor=    0 DFT=F Ex=HF Corr=None ExCW=0 ScaHFX=  1.000000
 ScaDFX=  1.000000  1.000000  1.000000  1.000000 ScalE2=  1.000000  1.000000
 IRadAn=      5 IRanWt=     -1 IRanGd=            0 ICorTp=0 IEmpDi=  4
 NAtoms=    2 NActive=    2 NUniq=    2 SFac= 1.00D+00 NAtFMM=   60 NAOKFM=F Big=F
 Integral buffers will be    131072 words long.
 Raffenetti 2 integral format.
 Two-electron integral symmetry is turned on.
 Leave Link  301 at Fri Feb  6 07:17:04 2026, MaxMem=  1048576000 cpu:               0.3 elap:               0.0
 (Enter /opt/Programs/Gaussian/16RevA.03//g16/l302.exe)
 NPDir=0 NMtPBC=     1 NCelOv=     1 NCel=       1 NClECP=     1 NCelD=      1
         NCelK=      1 NCelE2=     1 NClLst=     1 CellRange=     0.0.
 One-electron integrals computed using PRISM.
 One-electron integral symmetry used in STVInt
 NBasis=     6 RedAO= T EigKep=  4.13D-01  NBF=     4     0     1     1
 NBsUse=     6 1.00D-06 EigRej= -1.00D+00 NBFU=     4     0     1     1
 Leave Link  302 at Fri Feb  6 07:17:04 2026, MaxMem=  1048576000 cpu:               0.6 elap:               0.1
 (Enter /opt/Programs/Gaussian/16RevA.03//g16/l303.exe)
 DipDrv:  MaxL=1.
 Leave Link  303 at Fri Feb  6 07:17:04 2026, MaxMem=  1048576000 cpu:               0.2 elap:               0.0
 (Enter /opt/Programs/Gaussian/16RevA.03//g16/l401.exe)
 ExpMin= 1.69D-01 ExpMax= 1.67D+02 ExpMxC= 1.67D+02 IAcc=3 IRadAn=         5 AccDes= 0.00D+00
 Harris functional with IExCor=  205 and IRadAn=       5 diagonalized for initial guess.
 HarFok:  IExCor=  205 AccDes= 0.00D+00 IRadAn=         5 IDoV= 1 UseB2=F ITyADJ=14
 ICtDFT=  3500011 ScaDFX=  1.000000  1.000000  1.000000  1.000000
 FoFCou: FMM=F IPFlag=           0 FMFlag=      100000 FMFlg1=           0
         NFxFlg=           0 DoJE=T BraDBF=F KetDBF=T FulRan=T
         wScrn=  0.000000 ICntrl=       500 IOpCl=  0 I1Cent=   200000004 NGrid=           0
         NMat0=    1 NMatS0=      1 NMatT0=    0 NMatD0=    1 NMtDS0=    0 NMtDT0=    0
 Petite list used in FoFCou.
 Harris En= -98.1835545398435    
 JPrj=0 DoOrth=F DoCkMO=F.
 Initial guess orbital symmetries:
 Alpha Orbitals:
       Occupied  (SG) (SG) (SG) (PI) (PI)
       Virtual   (SG)
 Beta  Orbitals:
       Occupied  (SG) (SG) (SG) (PI)
       Virtual   (PI) (SG)
 Initial guess <Sx>= 0.0000 <Sy>= 0.0000 <Sz>= 0.5000 <S**2>= 0.7500 S= 0.5000
 Leave Link  401 at Fri Feb  6 07:17:05 2026, MaxMem=  1048576000 cpu:               0.7 elap:               0.1
 (Enter /opt/Programs/Gaussian/16RevA.03//g16/l502.exe)
 Keep R1 and R2 ints in memory in symmetry-blocked form, NReq=1602590.
 FoFCou: FMM=F IPFlag=           0 FMFlag=           0 FMFlg1=           0
         NFxFlg=           0 DoJE=F BraDBF=F KetDBF=F FulRan=T
         wScrn=  0.000000 ICntrl=       600 IOpCl=  0 I1Cent=           0 NGrid=           0
         NMat0=    1 NMatS0=     21 NMatT0=    0 NMatD0=    1 NMtDS0=    0 NMtDT0=    0
 Petite list used in FoFCou.
 UHF open shell SCF:
 Using DIIS extrapolation, IDIIS=  1040.
 NGot=  1048576000 LenX=  1048574116 LenY=  1048573234
 Requested convergence on RMS density matrix=1.00D-08 within 128 cycles.
 Requested convergence on MAX density matrix=1.00D-06.
 Requested convergence on             energy=1.00D-06.
 No special actions if energy rises.

 Cycle   1  Pass 1  IDiag  1:
 E= -98.1639509081743    
 DIIS: error= 4.40D-02 at cycle   1 NSaved=   1.
 NSaved= 1 IEnMin= 1 EnMin= -98.1639509081743     IErMin= 1 ErrMin= 4.40D-02
 ErrMax= 4.40D-02  0.00D+00 EMaxC= 1.00D-01 BMatC= 4.94D-02 BMatP= 4.94D-02
 IDIUse=3 WtCom= 5.60D-01 WtEn= 4.40D-01
 Coeff-Com:  0.100D+01
 Coeff-En:   0.100D+01
 Coeff:      0.100D+01
 Gap=     1.281 Goal=   None    Shift=    0.000
 Gap=     0.836 Goal=   None    Shift=    0.000
 GapD=    0.836 DampG=2.000 DampE=0.500 DampFc=1.0000 IDamp=-1.
 RMSDP=1.80D-02 MaxDP=6.80D-02              OVMax= 0.00D+00

 Cycle   2  Pass 1  IDiag  1:
 E= -98.1767603428800     Delta-E=       -0.012809434706 Rises=F Damp=F
 DIIS: error= 8.82D-03 at cycle   2 NSaved=   2.
 NSaved= 2 IEnMin= 2 EnMin= -98.1767603428800     IErMin= 2 ErrMin= 8.82D-03
 ErrMax= 8.82D-03  0.00D+00 EMaxC= 1.00D-01 BMatC= 8.63D-04 BMatP= 4.94D-02
 IDIUse=3 WtCom= 9.12D-01 WtEn= 8.82D-02
 Coeff-Com: -0.117D+00 0.112D+01
 Coeff-En:   0.000D+00 0.100D+01
 Coeff:     -0.106D+00 0.111D+01
 Gap=     1.239 Goal=   None    Shift=    0.000
 Gap=     0.836 Goal=   None    Shift=    0.000
 RMSDP=2.95D-03 MaxDP=1.35D-02 DE=-1.28D-02 OVMax= 0.00D+00

 Cycle   3  Pass 1  IDiag  1:
 E= -98.1770768465421     Delta-E=       -0.000316503662 Rises=F Damp=F
 DIIS: error= 1.79D-03 at cycle   3 NSaved=   3.
 NSaved= 3 IEnMin= 3 EnMin= -98.1770768465421     IErMin= 3 ErrMin= 1.79D-03
 ErrMax= 1.79D-03  0.00D+00 EMaxC= 1.00D-01 BMatC= 6.41D-05 BMatP= 8.63D-04
 IDIUse=3 WtCom= 9.82D-01 WtEn= 1.79D-02
 Coeff-Com:  0.393D-01-0.459D+00 0.142D+01
 Coeff-En:   0.000D+00 0.000D+00 0.100D+01
 Coeff:      0.386D-01-0.451D+00 0.141D+01
 Gap=     1.238 Goal=   None    Shift=    0.000
 Gap=     0.836 Goal=   None    Shift=    0.000
 RMSDP=1.16D-03 MaxDP=4.51D-03 DE=-3.17D-04 OVMax= 0.00D+00

 Cycle   4  Pass 1  IDiag  1:
 E= -98.1771173965757     Delta-E=       -0.000040550034 Rises=F Damp=F
 DIIS: error= 6.01D-04 at cycle   4 NSaved=   4.
 NSaved= 4 IEnMin= 4 EnMin= -98.1771173965757     IErMin= 4 ErrMin= 6.01D-04
 ErrMax= 6.01D-04  0.00D+00 EMaxC= 1.00D-01 BMatC= 9.86D-06 BMatP= 6.41D-05
 IDIUse=3 WtCom= 9.94D-01 WtEn= 6.01D-03
 Coeff-Com: -0.877D-02 0.138D+00-0.916D+00 0.179D+01
 Coeff-En:   0.000D+00 0.000D+00 0.000D+00 0.100D+01
 Coeff:     -0.871D-02 0.137D+00-0.910D+00 0.178D+01
 Gap=     1.239 Goal=   None    Shift=    0.000
 Gap=     0.836 Goal=   None    Shift=    0.000
 RMSDP=7.91D-04 MaxDP=3.06D-03 DE=-4.06D-05 OVMax= 0.00D+00

 Cycle   5  Pass 1  IDiag  1:
 E= -98.1771259740934     Delta-E=       -0.000008577518 Rises=F Damp=F
 DIIS: error= 6.99D-05 at cycle   5 NSaved=   5.
 NSaved= 5 IEnMin= 5 EnMin= -98.1771259740934     IErMin= 5 ErrMin= 6.99D-05
 ErrMax= 6.99D-05  0.00D+00 EMaxC= 1.00D-01 BMatC= 1.52D-07 BMatP= 9.86D-06
 IDIUse=1 WtCom= 1.00D+00 WtEn= 0.00D+00
 Coeff-Com:  0.264D-02-0.481D-01 0.361D+00-0.811D+00 0.150D+01
 Coeff:      0.264D-02-0.481D-01 0.361D+00-0.811D+00 0.150D+01
 Gap=     1.239 Goal=   None    Shift=    0.000
 Gap=     0.836 Goal=   None    Shift=    0.000
 RMSDP=1.05D-04 MaxDP=3.53D-04 DE=-8.58D-06 OVMax= 0.00D+00

 Cycle   6  Pass 1  IDiag  1:
 E= -98.1771260886963     Delta-E=       -0.000000114603 Rises=F Damp=F
 DIIS: error= 8.30D-07 at cycle   6 NSaved=   6.
 NSaved= 6 IEnMin= 6 EnMin= -98.1771260886963     IErMin= 6 ErrMin= 8.30D-07
 ErrMax= 8.30D-07  0.00D+00 EMaxC= 1.00D-01 BMatC= 2.41D-11 BMatP= 1.52D-07
 IDIUse=1 WtCom= 1.00D+00 WtEn= 0.00D+00
 Coeff-Com: -0.193D-03 0.357D-02-0.252D-01 0.547D-01-0.975D-01 0.106D+01
 Coeff:     -0.193D-03 0.357D-02-0.252D-01 0.547D-01-0.975D-01 0.106D+01
 Gap=     1.239 Goal=   None    Shift=    0.000
 Gap=     0.836 Goal=   None    Shift=    0.000
 RMSDP=7.05D-07 MaxDP=3.20D-06 DE=-1.15D-07 OVMax= 0.00D+00

 Cycle   7  Pass 1  IDiag  1:
 E= -98.1771260887070     Delta-E=       -0.000000000011 Rises=F Damp=F
 DIIS: error= 1.08D-07 at cycle   7 NSaved=   7.
 NSaved= 7 IEnMin= 7 EnMin= -98.1771260887070     IErMin= 7 ErrMin= 1.08D-07
 ErrMax= 1.08D-07  0.00D+00 EMaxC= 1.00D-01 BMatC= 3.80D-13 BMatP= 2.41D-11
 IDIUse=1 WtCom= 1.00D+00 WtEn= 0.00D+00
 Coeff-Com:  0.688D-06-0.370D-04-0.137D-03 0.781D-03-0.253D-02-0.197D+00
 Coeff-Com:  0.120D+01
 Coeff:      0.688D-06-0.370D-04-0.137D-03 0.781D-03-0.253D-02-0.197D+00
 Coeff:      0.120D+01
 Gap=     1.239 Goal=   None    Shift=    0.000
 Gap=     0.836 Goal=   None    Shift=    0.000
 RMSDP=7.50D-08 MaxDP=2.37D-07 DE=-1.06D-11 OVMax= 0.00D+00

 Cycle   8  Pass 1  IDiag  1:
 E= -98.1771260887071     Delta-E=       -0.000000000000 Rises=F Damp=F
 DIIS: error= 5.47D-10 at cycle   8 NSaved=   8.
 NSaved= 8 IEnMin= 8 EnMin= -98.1771260887071     IErMin= 8 ErrMin= 5.47D-10
 ErrMax= 5.47D-10  0.00D+00 EMaxC= 1.00D-01 BMatC= 6.93D-18 BMatP= 3.80D-13
 IDIUse=1 WtCom= 1.00D+00 WtEn= 0.00D+00
 Coeff-Com: -0.122D-07 0.956D-06 0.531D-05-0.255D-04 0.819D-04 0.601D-02
 Coeff-Com: -0.375D-01 0.103D+01
 Coeff:     -0.122D-07 0.956D-06 0.531D-05-0.255D-04 0.819D-04 0.601D-02
 Coeff:     -0.375D-01 0.103D+01
 Gap=     1.239 Goal=   None    Shift=    0.000
 Gap=     0.836 Goal=   None    Shift=    0.000
 RMSDP=6.82D-10 MaxDP=2.71D-09 DE=-1.14D-13 OVMax= 0.00D+00

 SCF Done:  E(UHF) =  -98.1771260887     A.U. after    8 cycles
            NFock=  8  Conv=0.68D-09     -V/T= 2.0285
 <Sx>= 0.0000 <Sy>= 0.0000 <Sz>= 0.5000 <S**2>= 0.7518 S= 0.5009
 <L.S>=  0.00000000000    
 KE= 9.545839410856D+01 PE=-2.378001694260D+02 EE= 3.896984676552D+01
 Annihilation of the first spin contaminant:
 S**2 before annihilation     0.7518,   after     0.7500
 Leave Link  502 at Fri Feb  6 07:17:05 2026, MaxMem=  1048576000 cpu:               0.6 elap:               0.1
 (Enter /opt/Programs/Gaussian/16RevA.03//g16/l801.exe)
 Windowed orbitals will be sorted by symmetry type.
 ExpMin= 1.69D-01 ExpMax= 1.67D+02 ExpMxC= 1.67D+02 IAcc=3 IRadAn=         5 AccDes= 0.00D+00
 HarFok:  IExCor=  205 AccDes= 0.00D+00 IRadAn=         5 IDoV=-2 UseB2=F ITyADJ=14
 ICtDFT= 12500011 ScaDFX=  1.000000  1.000000  1.000000  1.000000
 Largest valence mixing into a core orbital is  4.37D-05
 Largest core mixing into a valence orbital is  2.17D-05
 Largest valence mixing into a core orbital is  5.86D-05
 Largest core mixing into a valence orbital is  4.11D-05
 Range of M.O.s used for correlation:     2     6
 NBasis=     6 NAE=     5 NBE=     4 NFC=     1 NFV=     0
 NROrb=      5 NOA=     4 NOB=     3 NVA=     1 NVB=     2
 Leave Link  801 at Fri Feb  6 07:17:05 2026, MaxMem=  1048576000 cpu:               0.3 elap:               0.0
 (Enter /opt/Programs/Gaussian/16RevA.03//g16/l804.exe)
 Open-shell transformation, MDV=  1048576000 ITran=4 ISComp=2.
 Unit  1 TFree=          3871 TCopy=        216890.
 Semi-Direct transformation.
 ModeAB=           2 MOrb=             4 LenV=    1048456960
 LASXX=           20 LTotXX=          20 LenRXX=          20
 LTotAB=          75 MaxLAS=         420 LenRXY=         420
 NonZer=         540 LenScr=      785920 LnRSAI=           0
 LnScr1=           0 LExtra=           0 Total=       786360
 MaxDsk=          -1 SrtSym=           F ITran=            4
 DoSDTr:  NPSUse=  8
 JobTyp=1 Pass  1:  I=   1 to   4.
 (rs|ai) integrals will be sorted in core.
 Complete sort for first half transformation.
 First half transformation complete.
 Complete sort for second half transformation.
 Second half transformation complete.
 ModeAB=           2 MOrb=             3 LenV=    1048456960
 LASXX=           20 LTotXX=          20 LenRXX=         315
 LTotAB=           6 MaxLAS=         315 LenRXY=           6
 NonZer=         405 LenScr=      785920 LnRSAI=           0
 LnScr1=           0 LExtra=           0 Total=       786241
 MaxDsk=          -1 SrtSym=           F ITran=            4
 DoSDTr:  NPSUse=  8
 JobTyp=2 Pass  1:  I=   1 to   3.
 (rs|ai) integrals will be sorted in core.
 Complete sort for first half transformation.
 First half transformation complete.
 Complete sort for second half transformation.
 Second half transformation complete.
 Spin components of T(2) and E(2):
     alpha-alpha T2 =       0.0000000000D+00 E2=      0.0000000000D+00
     alpha-beta  T2 =       0.3570133075D-02 E2=     -0.1048223250D-01
     beta-beta   T2 =       0.0000000000D+00 E2=      0.0000000000D+00
 ANorm=    0.1001783476D+01
 E2 =    -0.1048223250D-01 EUMP2 =    -0.98187608321206D+02
 (S**2,0)=  0.75182D+00           (S**2,1)=  0.75057D+00
 E(PUHF)=      -0.98177738203D+02        E(PMP2)=      -0.98188010899D+02
 Leave Link  804 at Fri Feb  6 07:17:05 2026, MaxMem=  1048576000 cpu:               0.4 elap:               0.1
 (Enter /opt/Programs/Gaussian/16RevA.03//g16/l913.exe)
 CIDS:  MDV=  1048576000.
 Frozen-core window:  NFC=   1 NFV=   0.
 IFCWin=0 IBDFC=1 NFBD=     0     0 NFCmp=     0     0 NFFFC=     0     0
 Using original routines for 1st iteration.
 Using DD4UQ or CC4UQ for 2nd and later iterations.
 Keep R2 and R3 ints in memory in symmetry-blocked form, NReq=1604964.
 FoFCou: FMM=F IPFlag=           0 FMFlag=           0 FMFlg1=           0
         NFxFlg=           0 DoJE=F BraDBF=F KetDBF=F FulRan=T
         wScrn=  0.000000 ICntrl=       600 IOpCl=  0 I1Cent=           0 NGrid=           0
         NMat0=    1 NMatS0=     21 NMatT0=    0 NMatD0=    1 NMtDS0=    0 NMtDT0=    0
 Petite list used in FoFCou.
 CIDS: In Core Option IDoMem=           1.
 Coupled Cluster theory with single and double substitutions
 ===========================================================
 Iterations=  50 Convergence= 0.100D-06
 Produce multiple copies of IABC intergrals
 Iteration Nr.   1
 **********************
 DD1Dir will call FoFMem   1 times, MxPair=        28
 NAB=    12 NAA=     0 NBB=     3.
 E(PMP3)=      -0.98190757120D+02
 MP4(R+Q)=  0.37422965D-04
 Maximum subspace dimension=  5
 A-vector RMS=  1.0280344D-02 Max=  1.2677960D-02 conv= 1.00D-05.
 RLE energy=       -0.0143904269
 E3=       -0.28921979D-02        EUMP3=      -0.98190500519D+02
 E4(DQ)=   -0.88368259D-03        UMP4(DQ)=   -0.98191384202D+02
 E4(SDQ)=  -0.10317412D-02        UMP4(SDQ)=  -0.98191532260D+02
 VARIATIONAL ENERGIES WITH THE FIRST-ORDER WAVEFUNCTION:
 DE(Corr)= -0.13329036E-01 E(Corr)=     -98.190455125    
 NORM(A)=   0.10035171D+01
 Iteration Nr.   2
 **********************
 DD1Dir will call FoFMem   1 times, MxPair=        28
 NAB=    12 NAA=     0 NBB=     3.
 A-vector RMS=  2.9459783D-03 Max=  3.2764458D-03 conv= 1.00D-05.
 RLE energy=       -0.0150747425
 DE(Corr)= -0.14750280E-01 E(CORR)=     -98.191876369     Delta=-1.42D-03
 NORM(A)=   0.10040042D+01
 Iteration Nr.   3
 **********************
 DD1Dir will call FoFMem   1 times, MxPair=        28
 NAB=    12 NAA=     0 NBB=     3.
 A-vector RMS=  6.8924528D-04 Max=  1.9330635D-03 conv= 1.00D-05.
 RLE energy=       -0.0151481621
 DE(Corr)= -0.15077837E-01 E(CORR)=     -98.192203925     Delta=-3.28D-04
 NORM(A)=   0.10041173D+01
 Iteration Nr.   4
 **********************
 DD1Dir will call FoFMem   1 times, MxPair=        28
 NAB=    12 NAA=     0 NBB=     3.
 A-vector RMS=  3.2617958D-04 Max=  5.8597585D-04 conv= 1.00D-05.
 RLE energy=       -0.0151571303
 DE(Corr)= -0.15146721E-01 E(CORR)=     -98.192272809     Delta=-6.89D-05
 NORM(A)=   0.10041388D+01
 Iteration Nr.   5
 **********************
 DD1Dir will call FoFMem   1 times, MxPair=        28
 NAB=    12 NAA=     0 NBB=     3.
 A-vector RMS=  4.3259807D-05 Max=  5.5652336D-05 conv= 1.00D-05.
 RLE energy=       -0.0151573955
 DE(Corr)= -0.15157221E-01 E(CORR)=     -98.192283310     Delta=-1.05D-05
 NORM(A)=   0.10041393D+01
 Iteration Nr.   6
 **********************
 DD1Dir will call FoFMem   1 times, MxPair=        28
 NAB=    12 NAA=     0 NBB=     3.
 A-vector RMS=  9.1407475D-06 Max=  8.8083376D-06 conv= 1.00D-05.
 RLE energy=       -0.0151574111
 DE(Corr)= -0.15157404E-01 E(CORR)=     -98.192283492     Delta=-1.82D-07
 NORM(A)=   0.10041395D+01
 Iteration Nr.   7
 **********************
 DD1Dir will call FoFMem   1 times, MxPair=        28
 NAB=    12 NAA=     0 NBB=     3.
 A-vector RMS=  2.2665218D-06 Max=  2.1064647D-06 conv= 1.00D-05.
 RLE energy=       -0.0151574445
 DE(Corr)= -0.15157440E-01 E(CORR)=     -98.192283529     Delta=-3.68D-08
 NORM(A)=   0.10041396D+01
 CI/CC converged in    7 iterations to DelEn=-3.68D-08 Conv= 1.00D-07 ErrA1= 2.27D-06 Conv= 1.00D-05
 Wavefunction amplitudes converged. E(Corr)=     -98.192283529    
 Largest amplitude= 6.97D-02

 S**2, projected HF & approx projected MPn energies after annihilation of
 unwanted spin states (see manual for definitions):

 spins       (S**2,0) (S**2,1)    PUHF        PMP2        PMP3        PMP4
 annihilated
 s+1         0.75000  0.75000  -98.177738  -98.188011  -98.190757

 Discarding MO integrals.
 Leave Link  913 at Fri Feb  6 07:17:05 2026, MaxMem=  1048576000 cpu:               0.6 elap:               0.1
 (Enter /opt/Programs/Gaussian/16RevA.03//g16/l601.exe)
 Copying SCF densities to generalized density rwf, IOpCl= 1 IROHF=0.

 **********************************************************************

            Population analysis using the SCF density.

 **********************************************************************

 Orbital symmetries:
 Alpha Orbitals:
       Occupied  (SG) (SG) (PI) (SG) (PI)
       Virtual   (SG)
 Beta  Orbitals:
       Occupied  (SG) (SG) (SG) (PI)
       Virtual   (PI) (SG)
 Unable to determine electronic state:  partially filled degenerate orbitals.
 Alpha  occ. eigenvalues --  -26.90409  -2.26395  -1.32997  -1.31663  -1.22243
 Alpha virt. eigenvalues --    0.01703
  Beta  occ. eigenvalues --  -26.87244  -2.06961  -1.25758  -1.16537
  Beta virt. eigenvalues --   -0.32916   0.03984
          Condensed to atoms (all electrons):
               1          2
     1  H    0.254868   0.183879
     2  F    0.183879   8.377375
          Atomic-Atomic Spin Densities.
               1          2
     1  H   -0.030519  -0.015061
     2  F   -0.015061   1.060641
 Mulliken charges and spin densities:
               1          2
     1  H    0.561254  -0.045580
     2  F    0.438746   1.045580
 Sum of Mulliken charges =   1.00000   1.00000
 Mulliken charges and spin densities with hydrogens summed into heavy atoms:
               1          2
     2  F    1.000000   1.000000
 Electronic spatial extent (au):  <R**2>=              9.8233
 Charge=              1.0000 electrons
 Dipole moment (field-independent basis, Debye):
    X=              0.0000    Y=              0.0000    Z=             -2.2688  Tot=              2.2688
 Quadrupole moment (field-independent basis, Debye-Ang):
   XX=             -4.1295   YY=             -3.5073   ZZ=             -1.9423
   XY=              0.0000   XZ=              0.0000   YZ=              0.0000
 Traceless Quadrupole moment (field-independent basis, Debye-Ang):
   XX=             -0.9365   YY=             -0.3143   ZZ=              1.2508
   XY=              0.0000   XZ=              0.0000   YZ=              0.0000
 Octapole moment (field-independent basis, Debye-Ang**2):
  XXX=              0.0000  YYY=              0.0000  ZZZ=             -1.9257  XYY=              0.0000
  XXY=              0.0000  XXZ=             -0.0764  XZZ=              0.0000  YZZ=              0.0000
  YYZ=             -0.0193  XYZ=              0.0000
 Hexadecapole moment (field-independent basis, Debye-Ang**3):
 XXXX=             -1.6408 YYYY=             -1.3169 ZZZZ=             -1.4276 XXXY=              0.0000
 XXXZ=              0.0000 YYYX=              0.0000 YYYZ=              0.0000 ZZZX=              0.0000
 ZZZY=              0.0000 XXYY=             -0.4929 XXZZ=             -0.7709 YYZZ=             -0.7117
 XXYZ=              0.0000 YYXZ=              0.0000 ZZXY=              0.0000
 N-N= 5.194802463220D+00 E-N=-2.378001694287D+02  KE= 9.545839410856D+01
 Symmetry A1   KE= 8.571434978434D+01
 Symmetry A2   KE= 0.000000000000D+00
 Symmetry B1   KE= 6.496029549482D+00
 Symmetry B2   KE= 3.248014774741D+00
 Symmetry A1   SP= 3.087293035030D-15
 Symmetry A2   SP= 0.000000000000D+00
 Symmetry B1   SP= 0.000000000000D+00
 Symmetry B2   SP= 1.000000000000D+00
 Leave Link  601 at Fri Feb  6 07:17:05 2026, MaxMem=  1048576000 cpu:               0.2 elap:               0.0
 (Enter /opt/Programs/Gaussian/16RevA.03//g16/l9999.exe)
 1\1\GINC-CHOU\SP\UCCSD-FC\STO-3G\F1H1(1+,2)\RTCHOU\06-Feb-2026\0\\#p C
 CSD/STO-3G\\Generated by ChouChem Test Suite\\1,2\H,0,0.,0.,0.\F,0,0.,
 0.,0.9168\\Version=ES64L-G16RevA.03\HF=-98.1771261\MP2=-98.1876083\MP3
 =-98.1905005\MP4D=-98.1914216\MP4DQ=-98.1913842\PUHF=-98.1777382\PMP2-
 0=-98.1880109\PMP3-0=-98.1907571\MP4SDQ=-98.1915323\CCSD=-98.1922835\S
 2=0.751821\S2-1=0.750574\S2A=0.75\RMSD=6.818e-10\PG=C*V [C*(H1F1)]\\@


 I HAVE NOT FAILED, I HAVE ONLY DISCOVERED 10,000
 WAYS THAT DIDN'T WORK.  -- THOMAS A. EDISON
 Job cpu time:       0 days  0 hours  0 minutes  5.5 seconds.
 Elapsed time:       0 days  0 hours  0 minutes  0.7 seconds.
 File lengths (MBytes):  RWF=     13 Int=      0 D2E=      0 Chk=      1 Scr=      1
 Normal termination of Gaussian 16 at Fri Feb  6 07:17:05 2026.
