 Entering Gaussian System, Link 0=g16
 Input=test_g16/HF_Exp_6-31G_Q1_UHF.gjf
 Output=test_g16/HF_Exp_6-31G_Q1_UHF.log
 Initial command:
 /opt/Programs/Gaussian/16RevA.03//g16/l1.exe "/opt/Programs/Gaussian/16RevA.03/g16/scratch/Gau-247770.inp" -scrdir="/opt/Programs/Gaussian/16RevA.03/g16/scratch/"
 Entering Link 1 = /opt/Programs/Gaussian/16RevA.03//g16/l1.exe PID=    247771.
  
 Copyright (c) 1988,1990,1992,1993,1995,1998,2003,2009,2016,
            Gaussian, Inc.  All Rights Reserved.
  
 This is part of the Gaussian(R) 16 program.  It is based on
 the Gaussian(R) 09 system (copyright 2009, Gaussian, Inc.),
 the Gaussian(R) 03 system (copyright 2003, Gaussian, Inc.),
 the Gaussian(R) 98 system (copyright 1998, Gaussian, Inc.),
 the Gaussian(R) 94 system (copyright 1995, Gaussian, Inc.),
 the Gaussian 92(TM) system (copyright 1992, Gaussian, Inc.),
 the Gaussian 90(TM) system (copyright 1990, Gaussian, Inc.),
 the Gaussian 88(TM) system (copyright 1988, Gaussian, Inc.),
 the Gaussian 86(TM) system (copyright 1986, Carnegie Mellon
 University), and the Gaussian 82(TM) system (copyright 1983,
 Carnegie Mellon University). Gaussian is a federally registered
 trademark of Gaussian, Inc.
  
 This software contains proprietary and confidential information,
 including trade secrets, belonging to Gaussian, Inc.
  
 This software is provided under written license and may be
 used, copied, transmitted, or stored only in accord with that
 written license.
  
 The following legend is applicable only to US Government
 contracts under FAR:
  
                    RESTRICTED RIGHTS LEGEND
  
 Use, reproduction and disclosure by the US Government is
 subject to restrictions as set forth in subparagraphs (a)
 and (c) of the Commercial Computer Software - Restricted
 Rights clause in FAR 52.227-19.
  
 Gaussian, Inc.
 340 Quinnipiac St., Bldg. 40, Wallingford CT 06492
  
  
 ---------------------------------------------------------------
 Warning -- This program may not be used in any manner that
 competes with the business of Gaussian, Inc. or will provide
 assistance to any competitor of Gaussian, Inc.  The licensee
 of this program is prohibited from giving any competitor of
 Gaussian, Inc. access to this program.  By using this program,
 the user acknowledges that Gaussian, Inc. is engaged in the
 business of creating and licensing software in the field of
 computational chemistry and represents and warrants to the
 licensee that it is not a competitor of Gaussian, Inc. and that
 it will not use this program in any manner prohibited above.
 ---------------------------------------------------------------
  

 Cite this work as:
 Gaussian 16, Revision A.03,
 M. J. Frisch, G. W. Trucks, H. B. Schlegel, G. E. Scuseria, 
 M. A. Robb, J. R. Cheeseman, G. Scalmani, V. Barone, 
 G. A. Petersson, H. Nakatsuji, X. Li, M. Caricato, A. V. Marenich, 
 J. Bloino, B. G. Janesko, R. Gomperts, B. Mennucci, H. P. Hratchian, 
 J. V. Ortiz, A. F. Izmaylov, J. L. Sonnenberg, D. Williams-Young, 
 F. Ding, F. Lipparini, F. Egidi, J. Goings, B. Peng, A. Petrone, 
 T. Henderson, D. Ranasinghe, V. G. Zakrzewski, J. Gao, N. Rega, 
 G. Zheng, W. Liang, M. Hada, M. Ehara, K. Toyota, R. Fukuda, 
 J. Hasegawa, M. Ishida, T. Nakajima, Y. Honda, O. Kitao, H. Nakai, 
 T. Vreven, K. Throssell, J. A. Montgomery, Jr., J. E. Peralta, 
 F. Ogliaro, M. J. Bearpark, J. J. Heyd, E. N. Brothers, K. N. Kudin, 
 V. N. Staroverov, T. A. Keith, R. Kobayashi, J. Normand, 
 K. Raghavachari, A. P. Rendell, J. C. Burant, S. S. Iyengar, 
 J. Tomasi, M. Cossi, J. M. Millam, M. Klene, C. Adamo, R. Cammi, 
 J. W. Ochterski, R. L. Martin, K. Morokuma, O. Farkas, 
 J. B. Foresman, and D. J. Fox, Gaussian, Inc., Wallingford CT, 2016.
 
 ******************************************
 Gaussian 16:  ES64L-G16RevA.03 25-Dec-2016
                 6-Feb-2026 
 ******************************************
 %Mem=8000MB
 %NProcShared=8
 Will use up to    8 processors via shared memory.
 ------------
 #p UHF/6-31G
 ------------
 1/38=1,172=1/1;
 2/12=2,17=6,18=5,40=1/2;
 3/5=1,6=6,11=2,25=1,30=1,116=2/1,2,3;
 4//1;
 5/5=2,38=5/2;
 6/7=2,8=2,9=2,10=2,28=1/1;
 99/5=1,9=1/99;
 Leave Link    1 at Fri Feb  6 07:17:01 2026, MaxMem=  1048576000 cpu:               0.1 elap:               0.0
 (Enter /opt/Programs/Gaussian/16RevA.03//g16/l101.exe)
 --------------------------------
 Generated by ChouChem Test Suite
 --------------------------------
 Symbolic Z-matrix:
 Charge =  1 Multiplicity = 2
 H                     0.        0.        0. 
 F                     0.        0.        0.9168 
 
 ITRead=  0  0
 MicOpt= -1 -1
 NAtoms=      2 NQM=        2 NQMF=       0 NMMI=      0 NMMIF=      0
                NMic=       0 NMicF=      0.
                    Isotopes and Nuclear Properties:
 (Nuclear quadrupole moments (NQMom) in fm**2, nuclear magnetic moments (NMagM)
  in nuclear magnetons)

  Atom         1           2
 IAtWgt=           1          19
 AtmWgt=   1.0078250  18.9984032
 NucSpn=           1           1
 AtZEff=  -0.0000000  -0.0000000
 NQMom=    0.0000000   0.0000000
 NMagM=    2.7928460   2.6288670
 AtZNuc=   1.0000000   9.0000000
 Leave Link  101 at Fri Feb  6 07:17:01 2026, MaxMem=  1048576000 cpu:               1.3 elap:               0.2
 (Enter /opt/Programs/Gaussian/16RevA.03//g16/l202.exe)
                          Input orientation:                          
 ---------------------------------------------------------------------
 Center     Atomic      Atomic             Coordinates (Angstroms)
 Number     Number       Type             X           Y           Z
 ---------------------------------------------------------------------
      1          1           0        0.000000    0.000000    0.000000
      2          9           0        0.000000    0.000000    0.916800
 ---------------------------------------------------------------------
 Stoichiometry    FH(1+,2)
 Framework group  C*V[C*(HF)]
 Deg. of freedom     1
 Full point group                 C*V     NOp   4
 Largest Abelian subgroup         C2V     NOp   4
 Largest concise Abelian subgroup C1      NOp   1
                         Standard orientation:                         
 ---------------------------------------------------------------------
 Center     Atomic      Atomic             Coordinates (Angstroms)
 Number     Number       Type             X           Y           Z
 ---------------------------------------------------------------------
      1          1           0        0.000000    0.000000   -0.825120
      2          9           0        0.000000    0.000000    0.091680
 ---------------------------------------------------------------------
 Rotational constants (GHZ):           0.0000000         628.2477847         628.2477847
 Leave Link  202 at Fri Feb  6 07:17:01 2026, MaxMem=  1048576000 cpu:               0.0 elap:               0.0
 (Enter /opt/Programs/Gaussian/16RevA.03//g16/l301.exe)
 Standard basis: 6-31G (6D, 7F)
 Ernie: Thresh=  0.10000D-02 Tol=  0.10000D-05 Strict=F.
 There are     7 symmetry adapted cartesian basis functions of A1  symmetry.
 There are     0 symmetry adapted cartesian basis functions of A2  symmetry.
 There are     2 symmetry adapted cartesian basis functions of B1  symmetry.
 There are     2 symmetry adapted cartesian basis functions of B2  symmetry.
 There are     7 symmetry adapted basis functions of A1  symmetry.
 There are     0 symmetry adapted basis functions of A2  symmetry.
 There are     2 symmetry adapted basis functions of B1  symmetry.
 There are     2 symmetry adapted basis functions of B2  symmetry.
    11 basis functions,    26 primitive gaussians,    11 cartesian basis functions
     5 alpha electrons        4 beta electrons
       nuclear repulsion energy         5.1948024632 Hartrees.
 IExCor=    0 DFT=F Ex=HF Corr=None ExCW=0 ScaHFX=  1.000000
 ScaDFX=  1.000000  1.000000  1.000000  1.000000 ScalE2=  1.000000  1.000000
 IRadAn=      5 IRanWt=     -1 IRanGd=            0 ICorTp=0 IEmpDi=  4
 NAtoms=    2 NActive=    2 NUniq=    2 SFac= 1.00D+00 NAtFMM=   60 NAOKFM=F Big=F
 Integral buffers will be    131072 words long.
 Raffenetti 2 integral format.
 Two-electron integral symmetry is turned on.
 Leave Link  301 at Fri Feb  6 07:17:01 2026, MaxMem=  1048576000 cpu:               0.2 elap:               0.0
 (Enter /opt/Programs/Gaussian/16RevA.03//g16/l302.exe)
 NPDir=0 NMtPBC=     1 NCelOv=     1 NCel=       1 NClECP=     1 NCelD=      1
         NCelK=      1 NCelE2=     1 NClLst=     1 CellRange=     0.0.
 One-electron integrals computed using PRISM.
 One-electron integral symmetry used in STVInt
 NBasis=    11 RedAO= T EigKep=  1.09D-01  NBF=     7     0     2     2
 NBsUse=    11 1.00D-06 EigRej= -1.00D+00 NBFU=     7     0     2     2
 Leave Link  302 at Fri Feb  6 07:17:01 2026, MaxMem=  1048576000 cpu:               0.5 elap:               0.1
 (Enter /opt/Programs/Gaussian/16RevA.03//g16/l303.exe)
 DipDrv:  MaxL=1.
 Leave Link  303 at Fri Feb  6 07:17:01 2026, MaxMem=  1048576000 cpu:               0.2 elap:               0.0
 (Enter /opt/Programs/Gaussian/16RevA.03//g16/l401.exe)
 ExpMin= 1.61D-01 ExpMax= 7.00D+03 ExpMxC= 1.05D+03 IAcc=3 IRadAn=         5 AccDes= 0.00D+00
 Harris functional with IExCor=  205 and IRadAn=       5 diagonalized for initial guess.
 HarFok:  IExCor=  205 AccDes= 0.00D+00 IRadAn=         5 IDoV= 1 UseB2=F ITyADJ=14
 ICtDFT=  3500011 ScaDFX=  1.000000  1.000000  1.000000  1.000000
 FoFCou: FMM=F IPFlag=           0 FMFlag=      100000 FMFlg1=           0
         NFxFlg=           0 DoJE=T BraDBF=F KetDBF=T FulRan=T
         wScrn=  0.000000 ICntrl=       500 IOpCl=  0 I1Cent=   200000004 NGrid=           0
         NMat0=    1 NMatS0=      1 NMatT0=    0 NMatD0=    1 NMtDS0=    0 NMtDT0=    0
 Petite list used in FoFCou.
 Harris En= -99.5253916791749    
 JPrj=0 DoOrth=F DoCkMO=F.
 Initial guess orbital symmetries:
 Alpha Orbitals:
       Occupied  (SG) (SG) (SG) (PI) (PI)
       Virtual   (SG) (SG) (PI) (PI) (SG) (SG)
 Beta  Orbitals:
       Occupied  (SG) (SG) (SG) (PI)
       Virtual   (PI) (SG) (SG) (PI) (PI) (SG) (SG)
 Initial guess <Sx>= 0.0000 <Sy>= 0.0000 <Sz>= 0.5000 <S**2>= 0.7500 S= 0.5000
 Leave Link  401 at Fri Feb  6 07:17:01 2026, MaxMem=  1048576000 cpu:               0.6 elap:               0.1
 (Enter /opt/Programs/Gaussian/16RevA.03//g16/l502.exe)
 Keep R1 and R2 ints in memory in symmetry-blocked form, NReq=1607266.
 FoFCou: FMM=F IPFlag=           0 FMFlag=           0 FMFlg1=           0
         NFxFlg=           0 DoJE=F BraDBF=F KetDBF=F FulRan=T
         wScrn=  0.000000 ICntrl=       600 IOpCl=  0 I1Cent=           0 NGrid=           0
         NMat0=    1 NMatS0=     66 NMatT0=    0 NMatD0=    1 NMtDS0=    0 NMtDT0=    0
 Petite list used in FoFCou.
 UHF open shell SCF:
 Using DIIS extrapolation, IDIIS=  1040.
 NGot=  1048576000 LenX=  1048572366 LenY=  1048571484
 Requested convergence on RMS density matrix=1.00D-08 within 128 cycles.
 Requested convergence on MAX density matrix=1.00D-06.
 Requested convergence on             energy=1.00D-06.
 No special actions if energy rises.

 Cycle   1  Pass 1  IDiag  1:
 E= -99.4241793649149    
 DIIS: error= 7.30D-02 at cycle   1 NSaved=   1.
 NSaved= 1 IEnMin= 1 EnMin= -99.4241793649149     IErMin= 1 ErrMin= 7.30D-02
 ErrMax= 7.30D-02  0.00D+00 EMaxC= 1.00D-01 BMatC= 2.79D-01 BMatP= 2.79D-01
 IDIUse=3 WtCom= 2.70D-01 WtEn= 7.30D-01
 Coeff-Com:  0.100D+01
 Coeff-En:   0.100D+01
 Coeff:      0.100D+01
 Gap=     1.160 Goal=   None    Shift=    0.000
 Gap=     0.790 Goal=   None    Shift=    0.000
 GapD=    0.790 DampG=2.000 DampE=0.500 DampFc=1.0000 IDamp=-1.
 RMSDP=1.59D-02 MaxDP=8.29D-02              OVMax= 4.86D-02

 Cycle   2  Pass 1  IDiag  1:
 E= -99.4550579821022     Delta-E=       -0.030878617187 Rises=F Damp=F
 DIIS: error= 2.44D-02 at cycle   2 NSaved=   2.
 NSaved= 2 IEnMin= 2 EnMin= -99.4550579821022     IErMin= 2 ErrMin= 2.44D-02
 ErrMax= 2.44D-02  0.00D+00 EMaxC= 1.00D-01 BMatC= 2.61D-02 BMatP= 2.79D-01
 IDIUse=3 WtCom= 7.56D-01 WtEn= 2.44D-01
 Coeff-Com:  0.208D+00 0.792D+00
 Coeff-En:   0.000D+00 0.100D+01
 Coeff:      0.157D+00 0.843D+00
 Gap=     1.082 Goal=   None    Shift=    0.000
 Gap=     0.789 Goal=   None    Shift=    0.000
 RMSDP=4.50D-03 MaxDP=2.86D-02 DE=-3.09D-02 OVMax= 1.28D-02

 Cycle   3  Pass 1  IDiag  1:
 E= -99.4592433744541     Delta-E=       -0.004185392352 Rises=F Damp=F
 DIIS: error= 6.67D-03 at cycle   3 NSaved=   3.
 NSaved= 3 IEnMin= 3 EnMin= -99.4592433744541     IErMin= 3 ErrMin= 6.67D-03
 ErrMax= 6.67D-03  0.00D+00 EMaxC= 1.00D-01 BMatC= 1.05D-03 BMatP= 2.61D-02
 IDIUse=3 WtCom= 9.33D-01 WtEn= 6.67D-02
 Coeff-Com: -0.481D-01 0.110D-01 0.104D+01
 Coeff-En:   0.000D+00 0.000D+00 0.100D+01
 Coeff:     -0.449D-01 0.102D-01 0.103D+01
 Gap=     1.099 Goal=   None    Shift=    0.000
 Gap=     0.784 Goal=   None    Shift=    0.000
 RMSDP=1.04D-03 MaxDP=7.42D-03 DE=-4.19D-03 OVMax= 4.01D-03

 Cycle   4  Pass 1  IDiag  1:
 E= -99.4594880072190     Delta-E=       -0.000244632765 Rises=F Damp=F
 DIIS: error= 1.59D-03 at cycle   4 NSaved=   4.
 NSaved= 4 IEnMin= 4 EnMin= -99.4594880072190     IErMin= 4 ErrMin= 1.59D-03
 ErrMax= 1.59D-03  0.00D+00 EMaxC= 1.00D-01 BMatC= 8.91D-05 BMatP= 1.05D-03
 IDIUse=3 WtCom= 9.84D-01 WtEn= 1.59D-02
 Coeff-Com:  0.165D-01-0.534D-01-0.583D+00 0.162D+01
 Coeff-En:   0.000D+00 0.000D+00 0.000D+00 0.100D+01
 Coeff:      0.162D-01-0.525D-01-0.573D+00 0.161D+01
 Gap=     1.100 Goal=   None    Shift=    0.000
 Gap=     0.783 Goal=   None    Shift=    0.000
 RMSDP=5.36D-04 MaxDP=4.02D-03 DE=-2.45D-04 OVMax= 2.78D-03

 Cycle   5  Pass 1  IDiag  1:
 E= -99.4595339767530     Delta-E=       -0.000045969534 Rises=F Damp=F
 DIIS: error= 3.96D-04 at cycle   5 NSaved=   5.
 NSaved= 5 IEnMin= 5 EnMin= -99.4595339767530     IErMin= 5 ErrMin= 3.96D-04
 ErrMax= 3.96D-04  0.00D+00 EMaxC= 1.00D-01 BMatC= 6.86D-06 BMatP= 8.91D-05
 IDIUse=3 WtCom= 9.96D-01 WtEn= 3.96D-03
 Coeff-Com: -0.533D-02 0.301D-01 0.240D+00-0.929D+00 0.166D+01
 Coeff-En:   0.000D+00 0.000D+00 0.000D+00 0.000D+00 0.100D+01
 Coeff:     -0.531D-02 0.300D-01 0.240D+00-0.925D+00 0.166D+01
 Gap=     1.100 Goal=   None    Shift=    0.000
 Gap=     0.783 Goal=   None    Shift=    0.000
 RMSDP=1.97D-04 MaxDP=1.39D-03 DE=-4.60D-05 OVMax= 1.36D-03

 Cycle   6  Pass 1  IDiag  1:
 E= -99.4595387070225     Delta-E=       -0.000004730270 Rises=F Damp=F
 DIIS: error= 8.31D-05 at cycle   6 NSaved=   6.
 NSaved= 6 IEnMin= 6 EnMin= -99.4595387070225     IErMin= 6 ErrMin= 8.31D-05
 ErrMax= 8.31D-05  0.00D+00 EMaxC= 1.00D-01 BMatC= 3.35D-07 BMatP= 6.86D-06
 IDIUse=1 WtCom= 1.00D+00 WtEn= 0.00D+00
 Coeff-Com:  0.218D-02-0.154D-01-0.111D+00 0.465D+00-0.102D+01 0.168D+01
 Coeff:      0.218D-02-0.154D-01-0.111D+00 0.465D+00-0.102D+01 0.168D+01
 Gap=     1.100 Goal=   None    Shift=    0.000
 Gap=     0.783 Goal=   None    Shift=    0.000
 RMSDP=4.71D-05 MaxDP=3.20D-04 DE=-4.73D-06 OVMax= 3.57D-04

 Cycle   7  Pass 1  IDiag  1:
 E= -99.4595389289631     Delta-E=       -0.000000221941 Rises=F Damp=F
 DIIS: error= 1.36D-05 at cycle   7 NSaved=   7.
 NSaved= 7 IEnMin= 7 EnMin= -99.4595389289631     IErMin= 7 ErrMin= 1.36D-05
 ErrMax= 1.36D-05  0.00D+00 EMaxC= 1.00D-01 BMatC= 4.94D-09 BMatP= 3.35D-07
 IDIUse=1 WtCom= 1.00D+00 WtEn= 0.00D+00
 Coeff-Com: -0.910D-03 0.657D-02 0.472D-01-0.198D+00 0.439D+00-0.773D+00
 Coeff-Com:  0.148D+01
 Coeff:     -0.910D-03 0.657D-02 0.472D-01-0.198D+00 0.439D+00-0.773D+00
 Coeff:      0.148D+01
 Gap=     1.100 Goal=   None    Shift=    0.000
 Gap=     0.783 Goal=   None    Shift=    0.000
 RMSDP=4.08D-06 MaxDP=2.41D-05 DE=-2.22D-07 OVMax= 1.81D-05

 Cycle   8  Pass 1  IDiag  1:
 E= -99.4595389310054     Delta-E=       -0.000000002042 Rises=F Damp=F
 DIIS: error= 1.80D-06 at cycle   8 NSaved=   8.
 NSaved= 8 IEnMin= 8 EnMin= -99.4595389310054     IErMin= 8 ErrMin= 1.80D-06
 ErrMax= 1.80D-06  0.00D+00 EMaxC= 1.00D-01 BMatC= 8.20D-11 BMatP= 4.94D-09
 IDIUse=1 WtCom= 1.00D+00 WtEn= 0.00D+00
 Coeff-Com:  0.155D-03-0.111D-02-0.811D-02 0.334D-01-0.728D-01 0.130D+00
 Coeff-Com: -0.338D+00 0.126D+01
 Coeff:      0.155D-03-0.111D-02-0.811D-02 0.334D-01-0.728D-01 0.130D+00
 Coeff:     -0.338D+00 0.126D+01
 Gap=     1.100 Goal=   None    Shift=    0.000
 Gap=     0.783 Goal=   None    Shift=    0.000
 RMSDP=4.90D-07 MaxDP=3.22D-06 DE=-2.04D-09 OVMax= 2.02D-06

 Cycle   9  Pass 1  IDiag  1:
 E= -99.4595389310357     Delta-E=       -0.000000000030 Rises=F Damp=F
 DIIS: error= 1.20D-07 at cycle   9 NSaved=   9.
 NSaved= 9 IEnMin= 9 EnMin= -99.4595389310357     IErMin= 9 ErrMin= 1.20D-07
 ErrMax= 1.20D-07  0.00D+00 EMaxC= 1.00D-01 BMatC= 7.91D-13 BMatP= 8.20D-11
 IDIUse=1 WtCom= 1.00D+00 WtEn= 0.00D+00
 Coeff-Com: -0.106D-04 0.759D-04 0.576D-03-0.229D-02 0.475D-02-0.836D-02
 Coeff-Com:  0.269D-01-0.177D+00 0.116D+01
 Coeff:     -0.106D-04 0.759D-04 0.576D-03-0.229D-02 0.475D-02-0.836D-02
 Coeff:      0.269D-01-0.177D+00 0.116D+01
 Gap=     1.100 Goal=   None    Shift=    0.000
 Gap=     0.783 Goal=   None    Shift=    0.000
 RMSDP=5.58D-08 MaxDP=3.40D-07 DE=-3.03D-11 OVMax= 4.92D-07

 Cycle  10  Pass 1  IDiag  1:
 E= -99.4595389310360     Delta-E=       -0.000000000000 Rises=F Damp=F
 DIIS: error= 2.04D-08 at cycle  10 NSaved=  10.
 NSaved=10 IEnMin=10 EnMin= -99.4595389310360     IErMin=10 ErrMin= 2.04D-08
 ErrMax= 2.04D-08  0.00D+00 EMaxC= 1.00D-01 BMatC= 2.03D-14 BMatP= 7.91D-13
 IDIUse=1 WtCom= 1.00D+00 WtEn= 0.00D+00
 Coeff-Com:  0.114D-05-0.793D-05-0.677D-04 0.245D-03-0.451D-03 0.729D-03
 Coeff-Com: -0.353D-02 0.353D-01-0.329D+00 0.130D+01
 Coeff:      0.114D-05-0.793D-05-0.677D-04 0.245D-03-0.451D-03 0.729D-03
 Coeff:     -0.353D-02 0.353D-01-0.329D+00 0.130D+01
 Gap=     1.100 Goal=   None    Shift=    0.000
 Gap=     0.783 Goal=   None    Shift=    0.000
 RMSDP=8.18D-09 MaxDP=4.25D-08 DE=-2.98D-13 OVMax= 7.33D-08

 SCF Done:  E(UHF) =  -99.4595389310     A.U. after   10 cycles
            NFock= 10  Conv=0.82D-08     -V/T= 1.9985
 <Sx>= 0.0000 <Sy>= 0.0000 <Sz>= 0.5000 <S**2>= 0.7524 S= 0.5012
 <L.S>=  0.00000000000    
 KE= 9.961347710750D+01 PE=-2.440720256111D+02 EE= 3.980420710931D+01
 Annihilation of the first spin contaminant:
 S**2 before annihilation     0.7524,   after     0.7500
 Leave Link  502 at Fri Feb  6 07:17:01 2026, MaxMem=  1048576000 cpu:               0.6 elap:               0.1
 (Enter /opt/Programs/Gaussian/16RevA.03//g16/l601.exe)
 Copying SCF densities to generalized density rwf, IOpCl= 1 IROHF=0.

 **********************************************************************

            Population analysis using the SCF density.

 **********************************************************************

 Orbital symmetries:
 Alpha Orbitals:
       Occupied  (SG) (SG) (PI) (SG) (PI)
       Virtual   (SG) (SG) (PI) (PI) (SG) (SG)
 Beta  Orbitals:
       Occupied  (SG) (SG) (SG) (?A)
       Virtual   (?A) (SG) (SG) (?A) (SG) (?A) (SG)
 Unable to determine electronic state:  an orbital has unidentified symmetry.
 Alpha  occ. eigenvalues --  -26.99187  -2.27718  -1.38274  -1.37142  -1.27739
 Alpha virt. eigenvalues --   -0.17692   0.63540   0.87834   0.94298   1.06074
 Alpha virt. eigenvalues --    1.44717
  Beta  occ. eigenvalues --  -26.93795  -2.08641  -1.30969  -1.21550
  Beta virt. eigenvalues --   -0.43289  -0.16438   0.64200   0.96809   1.09066
  Beta virt. eigenvalues --    1.09284   1.49559
          Condensed to atoms (all electrons):
               1          2
     1  H    0.170394   0.183383
     2  F    0.183383   8.462840
          Atomic-Atomic Spin Densities.
               1          2
     1  H   -0.021207  -0.015939
     2  F   -0.015939   1.053085
 Mulliken charges and spin densities:
               1          2
     1  H    0.646223  -0.037146
     2  F    0.353777   1.037146
 Sum of Mulliken charges =   1.00000   1.00000
 Mulliken charges and spin densities with hydrogens summed into heavy atoms:
               1          2
     2  F    1.000000   1.000000
 Electronic spatial extent (au):  <R**2>=             10.1664
 Charge=              1.0000 electrons
 Dipole moment (field-independent basis, Debye):
    X=              0.0000    Y=              0.0000    Z=             -2.5098  Tot=              2.5098
 Quadrupole moment (field-independent basis, Debye-Ang):
   XX=             -4.3906   YY=             -3.6132   ZZ=             -2.0369
   XY=              0.0000   XZ=              0.0000   YZ=              0.0000
 Traceless Quadrupole moment (field-independent basis, Debye-Ang):
   XX=             -1.0437   YY=             -0.2663   ZZ=              1.3100
   XY=              0.0000   XZ=              0.0000   YZ=              0.0000
 Octapole moment (field-independent basis, Debye-Ang**2):
  XXX=              0.0000  YYY=              0.0000  ZZZ=             -2.5222  XYY=              0.0000
  XXY=              0.0000  XXZ=             -0.2684  XZZ=              0.0000  YZZ=              0.0000
  YYZ=             -0.1971  XYZ=              0.0000
 Hexadecapole moment (field-independent basis, Debye-Ang**3):
 XXXX=             -2.1586 YYYY=             -1.5563 ZZZZ=             -1.2575 XXXY=              0.0000
 XXXZ=              0.0000 YYYX=              0.0000 YYYZ=              0.0000 ZZZX=              0.0000
 ZZZY=              0.0000 XXYY=             -0.6191 XXZZ=             -0.8395 YYZZ=             -0.7326
 XXYZ=              0.0000 YYXZ=              0.0000 ZZXY=              0.0000
 N-N= 5.194802463220D+00 E-N=-2.440720257022D+02  KE= 9.961347710750D+01
 Symmetry A1   KE= 8.879035977647D+01
 Symmetry A2   KE= 0.000000000000D+00
 Symmetry B1   KE= 7.103297797917D+00
 Symmetry B2   KE= 3.719819533114D+00
 Symmetry A1   SP= 2.473173575657D-15
 Symmetry A2   SP= 0.000000000000D+00
 Symmetry B1   SP= 1.089513828890D-16
 Symmetry B2   SP= 1.000000000000D+00
                          Isotropic Fermi Contact Couplings
        Atom                 a.u.       MegaHertz       Gauss      10(-4) cm-1
     1  H(1)              -0.02487    -111.18084     -39.67209     -37.08594
     2  F(19)              0.30960    1302.61447     464.80524     434.50542
 --------------------------------------------------------
       Center         ----  Spin Dipole Couplings  ----
                      3XX-RR        3YY-RR        3ZZ-RR
 --------------------------------------------------------
     1   Atom       -0.163912     -0.086457      0.250369
     2   Atom       -3.184174      6.187789     -3.003615
 --------------------------------------------------------
                        XY            XZ            YZ
 --------------------------------------------------------
     1   Atom        0.000000      0.000000      0.000000
     2   Atom        0.000000      0.000000      0.000000
 --------------------------------------------------------


 ---------------------------------------------------------------------------------
              Anisotropic Spin Dipole Couplings in Principal Axis System
 ---------------------------------------------------------------------------------

       Atom             a.u.   MegaHertz   Gauss  10(-4) cm-1        Axes

              Baa    -0.1639   -87.456   -31.206   -29.172  1.0000  0.0000  0.0000
     1 H(1)   Bbb    -0.0865   -46.129   -16.460   -15.387 -0.0000  1.0000  0.0000
              Bcc     0.2504   133.585    47.666    44.559  0.0000  0.0000  1.0000
 
              Baa    -3.1842 -1599.174  -570.625  -533.427  1.0000  0.0000  0.0000
     2 F(19)  Bbb    -3.0036 -1508.492  -538.268  -503.179  0.0000  0.0000  1.0000
              Bcc     6.1878  3107.666  1108.893  1036.606 -0.0000  1.0000  0.0000
 

 ---------------------------------------------------------------------------------

 No NMR shielding tensors so no spin-rotation constants.
 Leave Link  601 at Fri Feb  6 07:17:01 2026, MaxMem=  1048576000 cpu:               0.8 elap:               0.1
 (Enter /opt/Programs/Gaussian/16RevA.03//g16/l9999.exe)
 1\1\GINC-CHOU\SP\UHF\6-31G\F1H1(1+,2)\RTCHOU\06-Feb-2026\0\\#p UHF/6-3
 1G\\Generated by ChouChem Test Suite\\1,2\H,0,0.,0.,0.\F,0,0.,0.,0.916
 8\\Version=ES64L-G16RevA.03\HF=-99.4595389\S2=0.752401\S2-1=0.\S2A=0.7
 50003\RMSD=8.178e-09\Dipole=0.,0.,-0.9874488\Quadrupole=-0.7759977,-0.
 1979694,0.9739671,0.,0.,0.\PG=C*V [C*(H1F1)]\\@


 THE RED LIGHT IS ALWAYS LONGER THAN THE GREEN LIGHT.

                     -- PETER'S THEORY OF RELATIVITY
 Job cpu time:       0 days  0 hours  0 minutes  4.6 seconds.
 Elapsed time:       0 days  0 hours  0 minutes  0.6 seconds.
 File lengths (MBytes):  RWF=      6 Int=      0 D2E=      0 Chk=      1 Scr=      1
 Normal termination of Gaussian 16 at Fri Feb  6 07:17:01 2026.
