 Entering Gaussian System, Link 0=g16
 Input=test_g16/HF_STO-3G_Q0_RCCSD.gjf
 Output=test_g16/HF_STO-3G_Q0_RCCSD.log
 Initial command:
 /opt/Programs/Gaussian/16RevA.03//g16/l1.exe "/opt/Programs/Gaussian/16RevA.03/g16/scratch/Gau-248462.inp" -scrdir="/opt/Programs/Gaussian/16RevA.03/g16/scratch/"
 Entering Link 1 = /opt/Programs/Gaussian/16RevA.03//g16/l1.exe PID=    248463.
  
 Copyright (c) 1988,1990,1992,1993,1995,1998,2003,2009,2016,
            Gaussian, Inc.  All Rights Reserved.
  
 This is part of the Gaussian(R) 16 program.  It is based on
 the Gaussian(R) 09 system (copyright 2009, Gaussian, Inc.),
 the Gaussian(R) 03 system (copyright 2003, Gaussian, Inc.),
 the Gaussian(R) 98 system (copyright 1998, Gaussian, Inc.),
 the Gaussian(R) 94 system (copyright 1995, Gaussian, Inc.),
 the Gaussian 92(TM) system (copyright 1992, Gaussian, Inc.),
 the Gaussian 90(TM) system (copyright 1990, Gaussian, Inc.),
 the Gaussian 88(TM) system (copyright 1988, Gaussian, Inc.),
 the Gaussian 86(TM) system (copyright 1986, Carnegie Mellon
 University), and the Gaussian 82(TM) system (copyright 1983,
 Carnegie Mellon University). Gaussian is a federally registered
 trademark of Gaussian, Inc.
  
 This software contains proprietary and confidential information,
 including trade secrets, belonging to Gaussian, Inc.
  
 This software is provided under written license and may be
 used, copied, transmitted, or stored only in accord with that
 written license.
  
 The following legend is applicable only to US Government
 contracts under FAR:
  
                    RESTRICTED RIGHTS LEGEND
  
 Use, reproduction and disclosure by the US Government is
 subject to restrictions as set forth in subparagraphs (a)
 and (c) of the Commercial Computer Software - Restricted
 Rights clause in FAR 52.227-19.
  
 Gaussian, Inc.
 340 Quinnipiac St., Bldg. 40, Wallingford CT 06492
  
  
 ---------------------------------------------------------------
 Warning -- This program may not be used in any manner that
 competes with the business of Gaussian, Inc. or will provide
 assistance to any competitor of Gaussian, Inc.  The licensee
 of this program is prohibited from giving any competitor of
 Gaussian, Inc. access to this program.  By using this program,
 the user acknowledges that Gaussian, Inc. is engaged in the
 business of creating and licensing software in the field of
 computational chemistry and represents and warrants to the
 licensee that it is not a competitor of Gaussian, Inc. and that
 it will not use this program in any manner prohibited above.
 ---------------------------------------------------------------
  

 Cite this work as:
 Gaussian 16, Revision A.03,
 M. J. Frisch, G. W. Trucks, H. B. Schlegel, G. E. Scuseria, 
 M. A. Robb, J. R. Cheeseman, G. Scalmani, V. Barone, 
 G. A. Petersson, H. Nakatsuji, X. Li, M. Caricato, A. V. Marenich, 
 J. Bloino, B. G. Janesko, R. Gomperts, B. Mennucci, H. P. Hratchian, 
 J. V. Ortiz, A. F. Izmaylov, J. L. Sonnenberg, D. Williams-Young, 
 F. Ding, F. Lipparini, F. Egidi, J. Goings, B. Peng, A. Petrone, 
 T. Henderson, D. Ranasinghe, V. G. Zakrzewski, J. Gao, N. Rega, 
 G. Zheng, W. Liang, M. Hada, M. Ehara, K. Toyota, R. Fukuda, 
 J. Hasegawa, M. Ishida, T. Nakajima, Y. Honda, O. Kitao, H. Nakai, 
 T. Vreven, K. Throssell, J. A. Montgomery, Jr., J. E. Peralta, 
 F. Ogliaro, M. J. Bearpark, J. J. Heyd, E. N. Brothers, K. N. Kudin, 
 V. N. Staroverov, T. A. Keith, R. Kobayashi, J. Normand, 
 K. Raghavachari, A. P. Rendell, J. C. Burant, S. S. Iyengar, 
 J. Tomasi, M. Cossi, J. M. Millam, M. Klene, C. Adamo, R. Cammi, 
 J. W. Ochterski, R. L. Martin, K. Morokuma, O. Farkas, 
 J. B. Foresman, and D. J. Fox, Gaussian, Inc., Wallingford CT, 2016.
 
 ******************************************
 Gaussian 16:  ES64L-G16RevA.03 25-Dec-2016
                 6-Feb-2026 
 ******************************************
 %Mem=8000MB
 %NProcShared=8
 Will use up to    8 processors via shared memory.
 --------------
 #p CCSD/STO-3G
 --------------
 1/38=1,172=1/1;
 2/12=2,17=6,18=5,40=1/2;
 3/6=3,11=9,25=1,30=1/1,2,3;
 4//1;
 5/5=2,38=5/2;
 8/6=4,9=120000,10=1/1,4;
 9/5=7/13;
 6/7=2,8=2,9=2,10=2/1;
 99/5=1,9=1/99;
 Leave Link    1 at Fri Feb  6 07:17:06 2026, MaxMem=  1048576000 cpu:               0.1 elap:               0.0
 (Enter /opt/Programs/Gaussian/16RevA.03//g16/l101.exe)
 --------------------------------
 Generated by ChouChem Test Suite
 --------------------------------
 Symbolic Z-matrix:
 Charge =  0 Multiplicity = 1
 H                     0.        0.        0. 
 F                     0.        0.        1.5 
 
 ITRead=  0  0
 MicOpt= -1 -1
 NAtoms=      2 NQM=        2 NQMF=       0 NMMI=      0 NMMIF=      0
                NMic=       0 NMicF=      0.
                    Isotopes and Nuclear Properties:
 (Nuclear quadrupole moments (NQMom) in fm**2, nuclear magnetic moments (NMagM)
  in nuclear magnetons)

  Atom         1           2
 IAtWgt=           1          19
 AtmWgt=   1.0078250  18.9984032
 NucSpn=           1           1
 AtZEff=  -0.0000000  -0.0000000
 NQMom=    0.0000000   0.0000000
 NMagM=    2.7928460   2.6288670
 AtZNuc=   1.0000000   9.0000000
 Leave Link  101 at Fri Feb  6 07:17:07 2026, MaxMem=  1048576000 cpu:               1.2 elap:               0.2
 (Enter /opt/Programs/Gaussian/16RevA.03//g16/l202.exe)
                          Input orientation:                          
 ---------------------------------------------------------------------
 Center     Atomic      Atomic             Coordinates (Angstroms)
 Number     Number       Type             X           Y           Z
 ---------------------------------------------------------------------
      1          1           0        0.000000    0.000000    0.000000
      2          9           0        0.000000    0.000000    1.500000
 ---------------------------------------------------------------------
 Stoichiometry    FH
 Framework group  C*V[C*(HF)]
 Deg. of freedom     1
 Full point group                 C*V     NOp   4
 Largest Abelian subgroup         C2V     NOp   4
 Largest concise Abelian subgroup C1      NOp   1
                         Standard orientation:                         
 ---------------------------------------------------------------------
 Center     Atomic      Atomic             Coordinates (Angstroms)
 Number     Number       Type             X           Y           Z
 ---------------------------------------------------------------------
      1          1           0        0.000000    0.000000   -1.350000
      2          9           0        0.000000    0.000000    0.150000
 ---------------------------------------------------------------------
 Rotational constants (GHZ):           0.0000000         234.6916601         234.6916601
 Leave Link  202 at Fri Feb  6 07:17:07 2026, MaxMem=  1048576000 cpu:               0.0 elap:               0.0
 (Enter /opt/Programs/Gaussian/16RevA.03//g16/l301.exe)
 Standard basis: STO-3G (5D, 7F)
 Ernie: Thresh=  0.10000D-02 Tol=  0.10000D-05 Strict=F.
 There are     4 symmetry adapted cartesian basis functions of A1  symmetry.
 There are     0 symmetry adapted cartesian basis functions of A2  symmetry.
 There are     1 symmetry adapted cartesian basis functions of B1  symmetry.
 There are     1 symmetry adapted cartesian basis functions of B2  symmetry.
 There are     4 symmetry adapted basis functions of A1  symmetry.
 There are     0 symmetry adapted basis functions of A2  symmetry.
 There are     1 symmetry adapted basis functions of B1  symmetry.
 There are     1 symmetry adapted basis functions of B2  symmetry.
     6 basis functions,    18 primitive gaussians,     6 cartesian basis functions
     5 alpha electrons        5 beta electrons
       nuclear repulsion energy         3.1750632655 Hartrees.
 IExCor=    0 DFT=F Ex=HF Corr=None ExCW=0 ScaHFX=  1.000000
 ScaDFX=  1.000000  1.000000  1.000000  1.000000 ScalE2=  1.000000  1.000000
 IRadAn=      5 IRanWt=     -1 IRanGd=            0 ICorTp=0 IEmpDi=  4
 NAtoms=    2 NActive=    2 NUniq=    2 SFac= 1.00D+00 NAtFMM=   60 NAOKFM=F Big=F
 Integral buffers will be    131072 words long.
 Raffenetti 1 integral format.
 Two-electron integral symmetry is turned on.
 Leave Link  301 at Fri Feb  6 07:17:07 2026, MaxMem=  1048576000 cpu:               0.4 elap:               0.0
 (Enter /opt/Programs/Gaussian/16RevA.03//g16/l302.exe)
 NPDir=0 NMtPBC=     1 NCelOv=     1 NCel=       1 NClECP=     1 NCelD=      1
         NCelK=      1 NCelE2=     1 NClLst=     1 CellRange=     0.0.
 One-electron integrals computed using PRISM.
 One-electron integral symmetry used in STVInt
 NBasis=     6 RedAO= T EigKep=  7.03D-01  NBF=     4     0     1     1
 NBsUse=     6 1.00D-06 EigRej= -1.00D+00 NBFU=     4     0     1     1
 Leave Link  302 at Fri Feb  6 07:17:07 2026, MaxMem=  1048576000 cpu:               0.8 elap:               0.1
 (Enter /opt/Programs/Gaussian/16RevA.03//g16/l303.exe)
 DipDrv:  MaxL=1.
 Leave Link  303 at Fri Feb  6 07:17:07 2026, MaxMem=  1048576000 cpu:               0.2 elap:               0.0
 (Enter /opt/Programs/Gaussian/16RevA.03//g16/l401.exe)
 ExpMin= 1.69D-01 ExpMax= 1.67D+02 ExpMxC= 1.67D+02 IAcc=3 IRadAn=         5 AccDes= 0.00D+00
 Harris functional with IExCor=  205 and IRadAn=       5 diagonalized for initial guess.
 HarFok:  IExCor=  205 AccDes= 0.00D+00 IRadAn=         5 IDoV= 1 UseB2=F ITyADJ=14
 ICtDFT=  3500011 ScaDFX=  1.000000  1.000000  1.000000  1.000000
 FoFCou: FMM=F IPFlag=           0 FMFlag=      100000 FMFlg1=           0
         NFxFlg=           0 DoJE=T BraDBF=F KetDBF=T FulRan=T
         wScrn=  0.000000 ICntrl=       500 IOpCl=  0 I1Cent=   200000004 NGrid=           0
         NMat0=    1 NMatS0=      1 NMatT0=    0 NMatD0=    1 NMtDS0=    0 NMtDT0=    0
 Petite list used in FoFCou.
 Harris En= -98.4386038155509    
 JPrj=0 DoOrth=F DoCkMO=F.
 Initial guess orbital symmetries:
       Occupied  (SG) (SG) (SG) (PI) (PI)
       Virtual   (SG)
 The electronic state of the initial guess is 1-SG.
 Leave Link  401 at Fri Feb  6 07:17:07 2026, MaxMem=  1048576000 cpu:               0.6 elap:               0.1
 (Enter /opt/Programs/Gaussian/16RevA.03//g16/l502.exe)
 Keep R1 ints in memory in symmetry-blocked form, NReq=1602590.
 FoFCou: FMM=F IPFlag=           0 FMFlag=           0 FMFlg1=           0
         NFxFlg=           0 DoJE=F BraDBF=F KetDBF=F FulRan=T
         wScrn=  0.000000 ICntrl=       600 IOpCl=  0 I1Cent=           0 NGrid=           0
         NMat0=    1 NMatS0=     21 NMatT0=    0 NMatD0=    1 NMtDS0=    0 NMtDT0=    0
 Petite list used in FoFCou.
 Closed shell SCF:
 Using DIIS extrapolation, IDIIS=  1040.
 NGot=  1048576000 LenX=  1048574215 LenY=  1048573333
 Requested convergence on RMS density matrix=1.00D-08 within 128 cycles.
 Requested convergence on MAX density matrix=1.00D-06.
 Requested convergence on             energy=1.00D-06.
 No special actions if energy rises.

 Cycle   1  Pass 1  IDiag  1:
 E= -98.3412905405051    
 DIIS: error= 4.90D-02 at cycle   1 NSaved=   1.
 NSaved= 1 IEnMin= 1 EnMin= -98.3412905405051     IErMin= 1 ErrMin= 4.90D-02
 ErrMax= 4.90D-02  0.00D+00 EMaxC= 1.00D-01 BMatC= 2.53D-02 BMatP= 2.53D-02
 IDIUse=3 WtCom= 5.10D-01 WtEn= 4.90D-01
 Coeff-Com:  0.100D+01
 Coeff-En:   0.100D+01
 Coeff:      0.100D+01
 Gap=     0.428 Goal=   None    Shift=    0.000
 GapD=    0.428 DampG=2.000 DampE=0.500 DampFc=1.0000 IDamp=-1.
 RMSDP=6.79D-02 MaxDP=2.81D-01              OVMax= 0.00D+00

 Cycle   2  Pass 1  IDiag  1:
 E= -98.4091681000820     Delta-E=       -0.067877559577 Rises=F Damp=F
 DIIS: error= 1.70D-02 at cycle   2 NSaved=   2.
 NSaved= 2 IEnMin= 2 EnMin= -98.4091681000820     IErMin= 2 ErrMin= 1.70D-02
 ErrMax= 1.70D-02  0.00D+00 EMaxC= 1.00D-01 BMatC= 2.28D-03 BMatP= 2.53D-02
 IDIUse=3 WtCom= 8.30D-01 WtEn= 1.70D-01
 Coeff-Com:  0.228D+00 0.772D+00
 Coeff-En:   0.000D+00 0.100D+01
 Coeff:      0.190D+00 0.810D+00
 Gap=     0.629 Goal=   None    Shift=    0.000
 RMSDP=1.52D-02 MaxDP=6.32D-02 DE=-6.79D-02 OVMax= 0.00D+00

 Cycle   3  Pass 1  IDiag  1:
 E= -98.4147363521642     Delta-E=       -0.005568252082 Rises=F Damp=F
 DIIS: error= 7.10D-04 at cycle   3 NSaved=   3.
 NSaved= 3 IEnMin= 3 EnMin= -98.4147363521642     IErMin= 3 ErrMin= 7.10D-04
 ErrMax= 7.10D-04  0.00D+00 EMaxC= 1.00D-01 BMatC= 6.84D-06 BMatP= 2.28D-03
 IDIUse=3 WtCom= 9.93D-01 WtEn= 7.10D-03
 Coeff-Com: -0.227D-01-0.260D-01 0.105D+01
 Coeff-En:   0.000D+00 0.000D+00 0.100D+01
 Coeff:     -0.225D-01-0.258D-01 0.105D+01
 Gap=     0.640 Goal=   None    Shift=    0.000
 RMSDP=6.44D-04 MaxDP=2.65D-03 DE=-5.57D-03 OVMax= 0.00D+00

 Cycle   4  Pass 1  IDiag  1:
 E= -98.4147504239272     Delta-E=       -0.000014071763 Rises=F Damp=F
 DIIS: error= 9.60D-05 at cycle   4 NSaved=   4.
 NSaved= 4 IEnMin= 4 EnMin= -98.4147504239272     IErMin= 4 ErrMin= 9.60D-05
 ErrMax= 9.60D-05  0.00D+00 EMaxC= 1.00D-01 BMatC= 5.20D-08 BMatP= 6.84D-06
 IDIUse=1 WtCom= 1.00D+00 WtEn= 0.00D+00
 Coeff-Com:  0.268D-02 0.452D-03-0.211D+00 0.121D+01
 Coeff:      0.268D-02 0.452D-03-0.211D+00 0.121D+01
 Gap=     0.639 Goal=   None    Shift=    0.000
 RMSDP=4.52D-05 MaxDP=1.23D-04 DE=-1.41D-05 OVMax= 0.00D+00

 Cycle   5  Pass 1  IDiag  1:
 E= -98.4147504970741     Delta-E=       -0.000000073147 Rises=F Damp=F
 DIIS: error= 1.81D-06 at cycle   5 NSaved=   5.
 NSaved= 5 IEnMin= 5 EnMin= -98.4147504970741     IErMin= 5 ErrMin= 1.81D-06
 ErrMax= 1.81D-06  0.00D+00 EMaxC= 1.00D-01 BMatC= 2.54D-11 BMatP= 5.20D-08
 IDIUse=1 WtCom= 1.00D+00 WtEn= 0.00D+00
 Coeff-Com: -0.263D-05-0.167D-03-0.138D-02 0.366D-02 0.998D+00
 Coeff:     -0.263D-05-0.167D-03-0.138D-02 0.366D-02 0.998D+00
 Gap=     0.639 Goal=   None    Shift=    0.000
 RMSDP=1.57D-06 MaxDP=6.10D-06 DE=-7.31D-08 OVMax= 0.00D+00

 Cycle   6  Pass 1  IDiag  1:
 E= -98.4147504971352     Delta-E=       -0.000000000061 Rises=F Damp=F
 DIIS: error= 7.09D-09 at cycle   6 NSaved=   6.
 NSaved= 6 IEnMin= 6 EnMin= -98.4147504971352     IErMin= 6 ErrMin= 7.09D-09
 ErrMax= 7.09D-09  0.00D+00 EMaxC= 1.00D-01 BMatC= 5.30D-16 BMatP= 2.54D-11
 IDIUse=1 WtCom= 1.00D+00 WtEn= 0.00D+00
 Coeff-Com: -0.285D-08-0.604D-07 0.102D-04-0.424D-04 0.505D-04 0.100D+01
 Coeff:     -0.285D-08-0.604D-07 0.102D-04-0.424D-04 0.505D-04 0.100D+01
 Gap=     0.639 Goal=   None    Shift=    0.000
 RMSDP=6.66D-09 MaxDP=2.80D-08 DE=-6.11D-11 OVMax= 0.00D+00

 SCF Done:  E(RHF) =  -98.4147504971     A.U. after    6 cycles
            NFock=  6  Conv=0.67D-08     -V/T= 2.0092
 KE= 9.751766468192D+01 PE=-2.433432371001D+02 EE= 4.423575865550D+01
 Leave Link  502 at Fri Feb  6 07:17:07 2026, MaxMem=  1048576000 cpu:               0.5 elap:               0.1
 (Enter /opt/Programs/Gaussian/16RevA.03//g16/l801.exe)
 Windowed orbitals will be sorted by symmetry type.
 ExpMin= 1.69D-01 ExpMax= 1.67D+02 ExpMxC= 1.67D+02 IAcc=3 IRadAn=         5 AccDes= 0.00D+00
 HarFok:  IExCor=  205 AccDes= 0.00D+00 IRadAn=         5 IDoV=-2 UseB2=F ITyADJ=14
 ICtDFT= 12500011 ScaDFX=  1.000000  1.000000  1.000000  1.000000
 Largest valence mixing into a core orbital is  3.79D-05
 Largest core mixing into a valence orbital is  3.57D-05
 Range of M.O.s used for correlation:     2     6
 NBasis=     6 NAE=     5 NBE=     5 NFC=     1 NFV=     0
 NROrb=      5 NOA=     4 NOB=     4 NVA=     1 NVB=     1
 Leave Link  801 at Fri Feb  6 07:17:07 2026, MaxMem=  1048576000 cpu:               0.3 elap:               0.0
 (Enter /opt/Programs/Gaussian/16RevA.03//g16/l804.exe)
 Closed-shell transformation, MDV=  1048576000 ITran=4 ISComp=2.
 Unit  1 TFree=          2650 TCopy=        216719.
 Semi-Direct transformation.
 ModeAB=           2 MOrb=             4 LenV=    1048457112
 LASXX=           20 LTotXX=          20 LenRXX=          20
 LTotAB=          61 MaxLAS=         420 LenRXY=         420
 NonZer=         540 LenScr=      785920 LnRSAI=           0
 LnScr1=           0 LExtra=           0 Total=       786360
 MaxDsk=          -1 SrtSym=           F ITran=            4
 DoSDTr:  NPSUse=  8
 JobTyp=0 Pass  1:  I=   1 to   4.
 (rs|ai) integrals will be sorted in core.
 Complete sort for first half transformation.
 First half transformation complete.
 Complete sort for second half transformation.
 Second half transformation complete.
 Spin components of T(2) and E(2):
     alpha-alpha T2 =       0.0000000000D+00 E2=      0.0000000000D+00
     alpha-beta  T2 =       0.4419079859D-01 E2=     -0.5836690006D-01
     beta-beta   T2 =       0.0000000000D+00 E2=      0.0000000000D+00
 ANorm=    0.1021856545D+01
 E2 =    -0.5836690006D-01 EUMP2 =    -0.98473117397197D+02
 Leave Link  804 at Fri Feb  6 07:17:07 2026, MaxMem=  1048576000 cpu:               0.3 elap:               0.0
 (Enter /opt/Programs/Gaussian/16RevA.03//g16/l913.exe)
 CIDS:  MDV=  1048576000.
 Frozen-core window:  NFC=   1 NFV=   0.
 IFCWin=0 IBDFC=1 NFBD=     0     0 NFCmp=     0     0 NFFFC=     0     0
 Using DD3R+UMP44R for 1st iteration.
 Using DD4RQ for 2nd and later iterations.
 Keep R2 and R3 ints in memory in symmetry-blocked form, NReq=1604952.
 FoFCou: FMM=F IPFlag=           0 FMFlag=           0 FMFlg1=           0
         NFxFlg=           0 DoJE=F BraDBF=F KetDBF=F FulRan=T
         wScrn=  0.000000 ICntrl=       600 IOpCl=  0 I1Cent=           0 NGrid=           0
         NMat0=    1 NMatS0=     21 NMatT0=    0 NMatD0=    1 NMtDS0=    0 NMtDT0=    0
 Petite list used in FoFCou.
 CIDS: In Core Option IDoMem=           1.
 Coupled Cluster theory with single and double substitutions
 ===========================================================
 Iterations=  50 Convergence= 0.100D-06
 Produce multiple copies of IABC intergrals
 Iteration Nr.   1
 **********************
 DD1Dir will call FoFMem   1 times, MxPair=        20
 NAB=    10 NAA=     0 NBB=     0.
 MP4(R+Q)=  0.25792799D-02
 Maximum subspace dimension=  5
 A-vector RMS=  4.5303121D-02 Max=  9.8632293D-02 conv= 1.00D-05.
 RLE energy=       -0.1051160219
 E3=       -0.28639148D-01        EUMP3=      -0.98501756545D+02
 E4(DQ)=   -0.12711353D-01        UMP4(DQ)=   -0.98514467897D+02
 E4(SDQ)=  -0.13294400D-01        UMP4(SDQ)=  -0.98515050945D+02
 VARIATIONAL ENERGIES WITH THE FIRST-ORDER WAVEFUNCTION:
 DE(Corr)= -0.84325217E-01 E(Corr)=     -98.499075714    
 NORM(A)=   0.10737136D+01
 Iteration Nr.   2
 **********************
 DD1Dir will call FoFMem   1 times, MxPair=        20
 NAB=    10 NAA=     0 NBB=     0.
 A-vector RMS=  7.3304510D-03 Max=  5.7057844D-03 conv= 1.00D-05.
 RLE energy=       -0.1043095892
 DE(Corr)= -0.10471026     E(CORR)=     -98.519460755     Delta=-2.04D-02
 NORM(A)=   0.10725524D+01
 Iteration Nr.   3
 **********************
 DD1Dir will call FoFMem   1 times, MxPair=        20
 NAB=    10 NAA=     0 NBB=     0.
 A-vector RMS=  1.4373907D-03 Max=  9.3079898D-04 conv= 1.00D-05.
 RLE energy=       -0.1044953769
 DE(Corr)= -0.10439900     E(CORR)=     -98.519149495     Delta= 3.11D-04
 NORM(A)=   0.10730194D+01
 Iteration Nr.   4
 **********************
 DD1Dir will call FoFMem   1 times, MxPair=        20
 NAB=    10 NAA=     0 NBB=     0.
 A-vector RMS=  3.2819552D-04 Max=  2.5736641D-04 conv= 1.00D-05.
 RLE energy=       -0.1046856387
 DE(Corr)= -0.10455988     E(CORR)=     -98.519310378     Delta=-1.61D-04
 NORM(A)=   0.10732997D+01
 Iteration Nr.   5
 **********************
 DD1Dir will call FoFMem   1 times, MxPair=        20
 NAB=    10 NAA=     0 NBB=     0.
 A-vector RMS=  5.3261891D-05 Max=  1.9983919D-04 conv= 1.00D-05.
 RLE energy=       -0.1045345604
 DE(Corr)= -0.10463045     E(CORR)=     -98.519380944     Delta=-7.06D-05
 NORM(A)=   0.10730921D+01
 Iteration Nr.   6
 **********************
 DD1Dir will call FoFMem   1 times, MxPair=        20
 NAB=    10 NAA=     0 NBB=     0.
 A-vector RMS=  4.2334011D-05 Max=  1.4665332D-04 conv= 1.00D-05.
 RLE energy=       -0.1046103125
 DE(Corr)= -0.10457459     E(CORR)=     -98.519325089     Delta= 5.59D-05
 NORM(A)=   0.10731969D+01
 Iteration Nr.   7
 **********************
 DD1Dir will call FoFMem   1 times, MxPair=        20
 NAB=    10 NAA=     0 NBB=     0.
 A-vector RMS=  1.1333928D-05 Max=  2.7048669D-05 conv= 1.00D-05.
 RLE energy=       -0.1046011395
 DE(Corr)= -0.10460310     E(CORR)=     -98.519353598     Delta=-2.85D-05
 NORM(A)=   0.10731839D+01
 Iteration Nr.   8
 **********************
 DD1Dir will call FoFMem   1 times, MxPair=        20
 NAB=    10 NAA=     0 NBB=     0.
 A-vector RMS=  2.4396307D-06 Max=  6.0586840D-06 conv= 1.00D-05.
 RLE energy=       -0.1045984285
 DE(Corr)= -0.10459951     E(CORR)=     -98.519350009     Delta= 3.59D-06
 NORM(A)=   0.10731801D+01
 Iteration Nr.   9
 **********************
 DD1Dir will call FoFMem   1 times, MxPair=        20
 NAB=    10 NAA=     0 NBB=     0.
 A-vector RMS=  5.8184628D-08 Max=  1.4264667D-07 conv= 1.00D-05.
 RLE energy=       -0.1045984896
 DE(Corr)= -0.10459847     E(CORR)=     -98.519348964     Delta= 1.05D-06
 NORM(A)=   0.10731802D+01
 Iteration Nr.  10
 **********************
 DD1Dir will call FoFMem   1 times, MxPair=        20
 NAB=    10 NAA=     0 NBB=     0.
 A-vector RMS=  1.3102226D-09 Max=  2.8144554D-09 conv= 1.00D-05.
 RLE energy=       -0.1045984908
 DE(Corr)= -0.10459849     E(CORR)=     -98.519348987     Delta=-2.39D-08
 NORM(A)=   0.10731802D+01
 CI/CC converged in   10 iterations to DelEn=-2.39D-08 Conv= 1.00D-07 ErrA1= 1.31D-09 Conv= 1.00D-05
 Wavefunction amplitudes converged. E(Corr)=     -98.519348987    
 Dominant configurations:
 ***********************
 Spin Case        I    J    A    B          Value
   ABAB           5    5    6    6      -0.384457D+00
 Largest amplitude= 3.84D-01
 Discarding MO integrals.
 Leave Link  913 at Fri Feb  6 07:17:07 2026, MaxMem=  1048576000 cpu:               0.6 elap:               0.1
 (Enter /opt/Programs/Gaussian/16RevA.03//g16/l601.exe)
 Copying SCF densities to generalized density rwf, IOpCl= 0 IROHF=0.

 **********************************************************************

            Population analysis using the SCF density.

 **********************************************************************

 Orbital symmetries:
       Occupied  (SG) (SG) (PI) (PI) (SG)
       Virtual   (SG)
 The electronic state is 1-SG.
 Alpha  occ. eigenvalues --  -25.93441  -1.40101  -0.46597  -0.46597  -0.40967
 Alpha virt. eigenvalues --    0.22977
          Condensed to atoms (all electrons):
               1          2
     1  H    0.810562   0.121413
     2  F    0.121413   8.946612
 Mulliken charges:
               1
     1  H    0.068025
     2  F   -0.068025
 Sum of Mulliken charges =   0.00000
 Mulliken charges with hydrogens summed into heavy atoms:
               1
     2  F    0.000000
 Electronic spatial extent (au):  <R**2>=             16.6251
 Charge=              0.0000 electrons
 Dipole moment (field-independent basis, Debye):
    X=              0.0000    Y=              0.0000    Z=             -0.8871  Tot=              0.8871
 Quadrupole moment (field-independent basis, Debye-Ang):
   XX=             -4.7644   YY=             -4.7644   ZZ=             -3.1060
   XY=              0.0000   XZ=              0.0000   YZ=              0.0000
 Traceless Quadrupole moment (field-independent basis, Debye-Ang):
   XX=             -0.5528   YY=             -0.5528   ZZ=              1.1056
   XY=              0.0000   XZ=              0.0000   YZ=              0.0000
 Octapole moment (field-independent basis, Debye-Ang**2):
  XXX=              0.0000  YYY=              0.0000  ZZZ=             -0.3153  XYY=              0.0000
  XXY=              0.0000  XXZ=              0.4468  XZZ=              0.0000  YZZ=              0.0000
  YYZ=              0.4468  XYZ=              0.0000
 Hexadecapole moment (field-independent basis, Debye-Ang**3):
 XXXX=             -2.0791 YYYY=             -2.0791 ZZZZ=             -7.6592 XXXY=              0.0000
 XXXZ=              0.0000 YYYX=              0.0000 YYYZ=              0.0000 ZZZX=              0.0000
 ZZZY=              0.0000 XXYY=             -0.6930 XXZZ=             -2.0982 YYZZ=             -2.0982
 XXYZ=              0.0000 YYXZ=              0.0000 ZZXY=              0.0000
 N-N= 3.175063265520D+00 E-N=-2.433432373786D+02  KE= 9.751766468192D+01
 Symmetry A1   KE= 8.452560558296D+01
 Symmetry A2   KE= 0.000000000000D+00
 Symmetry B1   KE= 6.496029549482D+00
 Symmetry B2   KE= 6.496029549482D+00
 Leave Link  601 at Fri Feb  6 07:17:07 2026, MaxMem=  1048576000 cpu:               0.2 elap:               0.0
 (Enter /opt/Programs/Gaussian/16RevA.03//g16/l9999.exe)
 1\1\GINC-CHOU\SP\RCCSD-FC\STO-3G\F1H1\RTCHOU\06-Feb-2026\0\\#p CCSD/ST
 O-3G\\Generated by ChouChem Test Suite\\0,1\H,0,0.,0.,0.\F,0,0.,0.,1.5
 \\Version=ES64L-G16RevA.03\State=1-SG\HF=-98.4147505\MP2=-98.4731174\M
 P3=-98.5017565\MP4D=-98.5170472\MP4DQ=-98.5144679\MP4SDQ=-98.5150509\C
 CSD=-98.519349\RMSD=6.655e-09\PG=C*V [C*(H1F1)]\\@


 MOM AND DAD WENT TO ALPHA CENTAURI AND ALL
 I GOT WAS THIS DUMB T-SHIRT.
 Job cpu time:       0 days  0 hours  0 minutes  5.4 seconds.
 Elapsed time:       0 days  0 hours  0 minutes  0.7 seconds.
 File lengths (MBytes):  RWF=     13 Int=      0 D2E=      0 Chk=      1 Scr=      1
 Normal termination of Gaussian 16 at Fri Feb  6 07:17:07 2026.
