 Entering Gaussian System, Link 0=g16
 Input=test_g16/HF_STO-3G_Q1_UCCSD.gjf
 Output=test_g16/HF_STO-3G_Q1_UCCSD.log
 Initial command:
 /opt/Programs/Gaussian/16RevA.03//g16/l1.exe "/opt/Programs/Gaussian/16RevA.03/g16/scratch/Gau-248812.inp" -scrdir="/opt/Programs/Gaussian/16RevA.03/g16/scratch/"
 Entering Link 1 = /opt/Programs/Gaussian/16RevA.03//g16/l1.exe PID=    248813.
  
 Copyright (c) 1988,1990,1992,1993,1995,1998,2003,2009,2016,
            Gaussian, Inc.  All Rights Reserved.
  
 This is part of the Gaussian(R) 16 program.  It is based on
 the Gaussian(R) 09 system (copyright 2009, Gaussian, Inc.),
 the Gaussian(R) 03 system (copyright 2003, Gaussian, Inc.),
 the Gaussian(R) 98 system (copyright 1998, Gaussian, Inc.),
 the Gaussian(R) 94 system (copyright 1995, Gaussian, Inc.),
 the Gaussian 92(TM) system (copyright 1992, Gaussian, Inc.),
 the Gaussian 90(TM) system (copyright 1990, Gaussian, Inc.),
 the Gaussian 88(TM) system (copyright 1988, Gaussian, Inc.),
 the Gaussian 86(TM) system (copyright 1986, Carnegie Mellon
 University), and the Gaussian 82(TM) system (copyright 1983,
 Carnegie Mellon University). Gaussian is a federally registered
 trademark of Gaussian, Inc.
  
 This software contains proprietary and confidential information,
 including trade secrets, belonging to Gaussian, Inc.
  
 This software is provided under written license and may be
 used, copied, transmitted, or stored only in accord with that
 written license.
  
 The following legend is applicable only to US Government
 contracts under FAR:
  
                    RESTRICTED RIGHTS LEGEND
  
 Use, reproduction and disclosure by the US Government is
 subject to restrictions as set forth in subparagraphs (a)
 and (c) of the Commercial Computer Software - Restricted
 Rights clause in FAR 52.227-19.
  
 Gaussian, Inc.
 340 Quinnipiac St., Bldg. 40, Wallingford CT 06492
  
  
 ---------------------------------------------------------------
 Warning -- This program may not be used in any manner that
 competes with the business of Gaussian, Inc. or will provide
 assistance to any competitor of Gaussian, Inc.  The licensee
 of this program is prohibited from giving any competitor of
 Gaussian, Inc. access to this program.  By using this program,
 the user acknowledges that Gaussian, Inc. is engaged in the
 business of creating and licensing software in the field of
 computational chemistry and represents and warrants to the
 licensee that it is not a competitor of Gaussian, Inc. and that
 it will not use this program in any manner prohibited above.
 ---------------------------------------------------------------
  

 Cite this work as:
 Gaussian 16, Revision A.03,
 M. J. Frisch, G. W. Trucks, H. B. Schlegel, G. E. Scuseria, 
 M. A. Robb, J. R. Cheeseman, G. Scalmani, V. Barone, 
 G. A. Petersson, H. Nakatsuji, X. Li, M. Caricato, A. V. Marenich, 
 J. Bloino, B. G. Janesko, R. Gomperts, B. Mennucci, H. P. Hratchian, 
 J. V. Ortiz, A. F. Izmaylov, J. L. Sonnenberg, D. Williams-Young, 
 F. Ding, F. Lipparini, F. Egidi, J. Goings, B. Peng, A. Petrone, 
 T. Henderson, D. Ranasinghe, V. G. Zakrzewski, J. Gao, N. Rega, 
 G. Zheng, W. Liang, M. Hada, M. Ehara, K. Toyota, R. Fukuda, 
 J. Hasegawa, M. Ishida, T. Nakajima, Y. Honda, O. Kitao, H. Nakai, 
 T. Vreven, K. Throssell, J. A. Montgomery, Jr., J. E. Peralta, 
 F. Ogliaro, M. J. Bearpark, J. J. Heyd, E. N. Brothers, K. N. Kudin, 
 V. N. Staroverov, T. A. Keith, R. Kobayashi, J. Normand, 
 K. Raghavachari, A. P. Rendell, J. C. Burant, S. S. Iyengar, 
 J. Tomasi, M. Cossi, J. M. Millam, M. Klene, C. Adamo, R. Cammi, 
 J. W. Ochterski, R. L. Martin, K. Morokuma, O. Farkas, 
 J. B. Foresman, and D. J. Fox, Gaussian, Inc., Wallingford CT, 2016.
 
 ******************************************
 Gaussian 16:  ES64L-G16RevA.03 25-Dec-2016
                 6-Feb-2026 
 ******************************************
 %Mem=8000MB
 %NProcShared=8
 Will use up to    8 processors via shared memory.
 --------------
 #p CCSD/STO-3G
 --------------
 1/38=1,172=1/1;
 2/12=2,17=6,18=5,40=1/2;
 3/6=3,11=9,25=1,30=1/1,2,3;
 4//1;
 5/5=2,38=5/2;
 8/6=4,9=120000,10=1/1,4;
 9/5=7/13;
 6/7=2,8=2,9=2,10=2/1;
 99/5=1,9=1/99;
 Leave Link    1 at Fri Feb  6 07:17:09 2026, MaxMem=  1048576000 cpu:               0.2 elap:               0.0
 (Enter /opt/Programs/Gaussian/16RevA.03//g16/l101.exe)
 --------------------------------
 Generated by ChouChem Test Suite
 --------------------------------
 Symbolic Z-matrix:
 Charge =  1 Multiplicity = 2
 H                     0.        0.        0. 
 F                     0.        0.        1.5 
 
 ITRead=  0  0
 MicOpt= -1 -1
 NAtoms=      2 NQM=        2 NQMF=       0 NMMI=      0 NMMIF=      0
                NMic=       0 NMicF=      0.
                    Isotopes and Nuclear Properties:
 (Nuclear quadrupole moments (NQMom) in fm**2, nuclear magnetic moments (NMagM)
  in nuclear magnetons)

  Atom         1           2
 IAtWgt=           1          19
 AtmWgt=   1.0078250  18.9984032
 NucSpn=           1           1
 AtZEff=  -0.0000000  -0.0000000
 NQMom=    0.0000000   0.0000000
 NMagM=    2.7928460   2.6288670
 AtZNuc=   1.0000000   9.0000000
 Leave Link  101 at Fri Feb  6 07:17:10 2026, MaxMem=  1048576000 cpu:               1.3 elap:               0.2
 (Enter /opt/Programs/Gaussian/16RevA.03//g16/l202.exe)
                          Input orientation:                          
 ---------------------------------------------------------------------
 Center     Atomic      Atomic             Coordinates (Angstroms)
 Number     Number       Type             X           Y           Z
 ---------------------------------------------------------------------
      1          1           0        0.000000    0.000000    0.000000
      2          9           0        0.000000    0.000000    1.500000
 ---------------------------------------------------------------------
 Stoichiometry    FH(1+,2)
 Framework group  C*V[C*(HF)]
 Deg. of freedom     1
 Full point group                 C*V     NOp   4
 Largest Abelian subgroup         C2V     NOp   4
 Largest concise Abelian subgroup C1      NOp   1
                         Standard orientation:                         
 ---------------------------------------------------------------------
 Center     Atomic      Atomic             Coordinates (Angstroms)
 Number     Number       Type             X           Y           Z
 ---------------------------------------------------------------------
      1          1           0        0.000000    0.000000   -1.350000
      2          9           0        0.000000    0.000000    0.150000
 ---------------------------------------------------------------------
 Rotational constants (GHZ):           0.0000000         234.6916601         234.6916601
 Leave Link  202 at Fri Feb  6 07:17:10 2026, MaxMem=  1048576000 cpu:               0.0 elap:               0.0
 (Enter /opt/Programs/Gaussian/16RevA.03//g16/l301.exe)
 Standard basis: STO-3G (5D, 7F)
 Ernie: Thresh=  0.10000D-02 Tol=  0.10000D-05 Strict=F.
 There are     4 symmetry adapted cartesian basis functions of A1  symmetry.
 There are     0 symmetry adapted cartesian basis functions of A2  symmetry.
 There are     1 symmetry adapted cartesian basis functions of B1  symmetry.
 There are     1 symmetry adapted cartesian basis functions of B2  symmetry.
 There are     4 symmetry adapted basis functions of A1  symmetry.
 There are     0 symmetry adapted basis functions of A2  symmetry.
 There are     1 symmetry adapted basis functions of B1  symmetry.
 There are     1 symmetry adapted basis functions of B2  symmetry.
     6 basis functions,    18 primitive gaussians,     6 cartesian basis functions
     5 alpha electrons        4 beta electrons
       nuclear repulsion energy         3.1750632655 Hartrees.
 IExCor=    0 DFT=F Ex=HF Corr=None ExCW=0 ScaHFX=  1.000000
 ScaDFX=  1.000000  1.000000  1.000000  1.000000 ScalE2=  1.000000  1.000000
 IRadAn=      5 IRanWt=     -1 IRanGd=            0 ICorTp=0 IEmpDi=  4
 NAtoms=    2 NActive=    2 NUniq=    2 SFac= 1.00D+00 NAtFMM=   60 NAOKFM=F Big=F
 Integral buffers will be    131072 words long.
 Raffenetti 2 integral format.
 Two-electron integral symmetry is turned on.
 Leave Link  301 at Fri Feb  6 07:17:10 2026, MaxMem=  1048576000 cpu:               0.3 elap:               0.0
 (Enter /opt/Programs/Gaussian/16RevA.03//g16/l302.exe)
 NPDir=0 NMtPBC=     1 NCelOv=     1 NCel=       1 NClECP=     1 NCelD=      1
         NCelK=      1 NCelE2=     1 NClLst=     1 CellRange=     0.0.
 One-electron integrals computed using PRISM.
 One-electron integral symmetry used in STVInt
 NBasis=     6 RedAO= T EigKep=  7.03D-01  NBF=     4     0     1     1
 NBsUse=     6 1.00D-06 EigRej= -1.00D+00 NBFU=     4     0     1     1
 Leave Link  302 at Fri Feb  6 07:17:10 2026, MaxMem=  1048576000 cpu:               0.7 elap:               0.1
 (Enter /opt/Programs/Gaussian/16RevA.03//g16/l303.exe)
 DipDrv:  MaxL=1.
 Leave Link  303 at Fri Feb  6 07:17:10 2026, MaxMem=  1048576000 cpu:               0.2 elap:               0.0
 (Enter /opt/Programs/Gaussian/16RevA.03//g16/l401.exe)
 ExpMin= 1.69D-01 ExpMax= 1.67D+02 ExpMxC= 1.67D+02 IAcc=3 IRadAn=         5 AccDes= 0.00D+00
 Harris functional with IExCor=  205 and IRadAn=       5 diagonalized for initial guess.
 HarFok:  IExCor=  205 AccDes= 0.00D+00 IRadAn=         5 IDoV= 1 UseB2=F ITyADJ=14
 ICtDFT=  3500011 ScaDFX=  1.000000  1.000000  1.000000  1.000000
 FoFCou: FMM=F IPFlag=           0 FMFlag=      100000 FMFlg1=           0
         NFxFlg=           0 DoJE=T BraDBF=F KetDBF=T FulRan=T
         wScrn=  0.000000 ICntrl=       500 IOpCl=  0 I1Cent=   200000004 NGrid=           0
         NMat0=    1 NMatS0=      1 NMatT0=    0 NMatD0=    1 NMtDS0=    0 NMtDT0=    0
 Petite list used in FoFCou.
 Harris En= -98.1269331949167    
 JPrj=0 DoOrth=F DoCkMO=F.
 Initial guess orbital symmetries:
 Alpha Orbitals:
       Occupied  (SG) (SG) (SG) (PI) (PI)
       Virtual   (SG)
 Beta  Orbitals:
       Occupied  (SG) (SG) (SG) (PI)
       Virtual   (PI) (SG)
 Initial guess <Sx>= 0.0000 <Sy>= 0.0000 <Sz>= 0.5000 <S**2>= 0.7500 S= 0.5000
 Leave Link  401 at Fri Feb  6 07:17:10 2026, MaxMem=  1048576000 cpu:               0.6 elap:               0.1
 (Enter /opt/Programs/Gaussian/16RevA.03//g16/l502.exe)
 Keep R1 and R2 ints in memory in symmetry-blocked form, NReq=1602590.
 FoFCou: FMM=F IPFlag=           0 FMFlag=           0 FMFlg1=           0
         NFxFlg=           0 DoJE=F BraDBF=F KetDBF=F FulRan=T
         wScrn=  0.000000 ICntrl=       600 IOpCl=  0 I1Cent=           0 NGrid=           0
         NMat0=    1 NMatS0=     21 NMatT0=    0 NMatD0=    1 NMtDS0=    0 NMtDT0=    0
 Petite list used in FoFCou.
 UHF open shell SCF:
 Using DIIS extrapolation, IDIIS=  1040.
 NGot=  1048576000 LenX=  1048574116 LenY=  1048573234
 Requested convergence on RMS density matrix=1.00D-08 within 128 cycles.
 Requested convergence on MAX density matrix=1.00D-06.
 Requested convergence on             energy=1.00D-06.
 No special actions if energy rises.

 Cycle   1  Pass 1  IDiag  1:
 E= -98.0981269640273    
 DIIS: error= 3.00D-02 at cycle   1 NSaved=   1.
 NSaved= 1 IEnMin= 1 EnMin= -98.0981269640273     IErMin= 1 ErrMin= 3.00D-02
 ErrMax= 3.00D-02  0.00D+00 EMaxC= 1.00D-01 BMatC= 2.76D-02 BMatP= 2.76D-02
 IDIUse=3 WtCom= 7.00D-01 WtEn= 3.00D-01
 Coeff-Com:  0.100D+01
 Coeff-En:   0.100D+01
 Coeff:      0.100D+01
 Gap=     0.768 Goal=   None    Shift=    0.000
 Gap=     0.743 Goal=   None    Shift=    0.000
 GapD=    0.743 DampG=2.000 DampE=0.500 DampFc=1.0000 IDamp=-1.
 RMSDP=2.44D-02 MaxDP=1.00D-01              OVMax= 0.00D+00

 Cycle   2  Pass 1  IDiag  1:
 E= -98.1141784363192     Delta-E=       -0.016051472292 Rises=F Damp=F
 DIIS: error= 3.47D-03 at cycle   2 NSaved=   2.
 NSaved= 2 IEnMin= 2 EnMin= -98.1141784363192     IErMin= 2 ErrMin= 3.47D-03
 ErrMax= 3.47D-03  0.00D+00 EMaxC= 1.00D-01 BMatC= 4.51D-04 BMatP= 2.76D-02
 IDIUse=3 WtCom= 9.65D-01 WtEn= 3.47D-02
 Coeff-Com: -0.395D-01 0.104D+01
 Coeff-En:   0.000D+00 0.100D+01
 Coeff:     -0.381D-01 0.104D+01
 Gap=     0.741 Goal=   None    Shift=    0.000
 Gap=     0.694 Goal=   None    Shift=    0.000
 RMSDP=3.40D-03 MaxDP=1.37D-02 DE=-1.61D-02 OVMax= 0.00D+00

 Cycle   3  Pass 1  IDiag  1:
 E= -98.1146977707055     Delta-E=       -0.000519334386 Rises=F Damp=F
 DIIS: error= 2.75D-03 at cycle   3 NSaved=   3.
 NSaved= 3 IEnMin= 3 EnMin= -98.1146977707055     IErMin= 3 ErrMin= 2.75D-03
 ErrMax= 2.75D-03  0.00D+00 EMaxC= 1.00D-01 BMatC= 3.09D-04 BMatP= 4.51D-04
 IDIUse=3 WtCom= 9.73D-01 WtEn= 2.75D-02
 Coeff-Com:  0.571D-01-0.189D+01 0.283D+01
 Coeff-En:   0.000D+00 0.000D+00 0.100D+01
 Coeff:      0.555D-01-0.184D+01 0.278D+01
 Gap=     0.754 Goal=   None    Shift=    0.000
 Gap=     0.678 Goal=   None    Shift=    0.000
 RMSDP=8.20D-03 MaxDP=3.16D-02 DE=-5.19D-04 OVMax= 0.00D+00

 Cycle   4  Pass 1  IDiag  1:
 E= -98.1157035090530     Delta-E=       -0.001005738348 Rises=F Damp=F
 DIIS: error= 2.16D-03 at cycle   4 NSaved=   4.
 NSaved= 4 IEnMin= 4 EnMin= -98.1157035090530     IErMin= 4 ErrMin= 2.16D-03
 ErrMax= 2.16D-03  0.00D+00 EMaxC= 1.00D-01 BMatC= 1.68D-04 BMatP= 3.09D-04
 IDIUse=3 WtCom= 9.78D-01 WtEn= 2.16D-02
 Coeff-Com: -0.504D-01 0.192D+01-0.514D+01 0.427D+01
 Coeff-En:   0.000D+00 0.000D+00 0.000D+00 0.100D+01
 Coeff:     -0.493D-01 0.188D+01-0.503D+01 0.420D+01
 Gap=     0.794 Goal=   None    Shift=    0.000
 Gap=     0.648 Goal=   None    Shift=    0.000
 RMSDP=2.05D-02 MaxDP=8.95D-02 DE=-1.01D-03 OVMax= 0.00D+00

 Cycle   5  Pass 1  IDiag  1:
 E= -98.1167564315359     Delta-E=       -0.001052922483 Rises=F Damp=F
 DIIS: error= 6.50D-04 at cycle   5 NSaved=   5.
 NSaved= 5 IEnMin= 5 EnMin= -98.1167564315359     IErMin= 5 ErrMin= 6.50D-04
 ErrMax= 6.50D-04  0.00D+00 EMaxC= 1.00D-01 BMatC= 1.58D-05 BMatP= 1.68D-04
 IDIUse=3 WtCom= 9.93D-01 WtEn= 6.50D-03
 Coeff-Com: -0.804D-02-0.744D+00 0.212D+01-0.165D+01 0.128D+01
 Coeff-En:   0.000D+00 0.000D+00 0.000D+00 0.000D+00 0.100D+01
 Coeff:     -0.799D-02-0.739D+00 0.211D+01-0.164D+01 0.128D+01
 Gap=     0.803 Goal=   None    Shift=    0.000
 Gap=     0.655 Goal=   None    Shift=    0.000
 RMSDP=3.05D-03 MaxDP=1.61D-02 DE=-1.05D-03 OVMax= 0.00D+00

 Cycle   6  Pass 1  IDiag  1:
 E= -98.1167618438592     Delta-E=       -0.000005412323 Rises=F Damp=F
 DIIS: error= 4.11D-04 at cycle   6 NSaved=   6.
 NSaved= 6 IEnMin= 6 EnMin= -98.1167618438592     IErMin= 6 ErrMin= 4.11D-04
 ErrMax= 4.11D-04  0.00D+00 EMaxC= 1.00D-01 BMatC= 3.52D-06 BMatP= 1.58D-05
 IDIUse=3 WtCom= 9.96D-01 WtEn= 4.11D-03
 Coeff-Com:  0.425D-02 0.143D+00-0.369D+00 0.189D+00 0.339D-01 0.998D+00
 Coeff-En:   0.000D+00 0.000D+00 0.000D+00 0.000D+00 0.000D+00 0.100D+01
 Coeff:      0.423D-02 0.143D+00-0.367D+00 0.189D+00 0.337D-01 0.998D+00
 Gap=     0.802 Goal=   None    Shift=    0.000
 Gap=     0.656 Goal=   None    Shift=    0.000
 RMSDP=1.98D-03 MaxDP=9.81D-03 DE=-5.41D-06 OVMax= 0.00D+00

 Cycle   7  Pass 1  IDiag  1:
 E= -98.1167710585560     Delta-E=       -0.000009214697 Rises=F Damp=F
 DIIS: error= 8.69D-05 at cycle   7 NSaved=   7.
 NSaved= 7 IEnMin= 7 EnMin= -98.1167710585560     IErMin= 7 ErrMin= 8.69D-05
 ErrMax= 8.69D-05  0.00D+00 EMaxC= 1.00D-01 BMatC= 1.81D-07 BMatP= 3.52D-06
 IDIUse=1 WtCom= 1.00D+00 WtEn= 0.00D+00
 Coeff-Com: -0.171D-03 0.128D-01-0.438D-01 0.539D-01-0.904D-01 0.230D-01
 Coeff-Com:  0.104D+01
 Coeff:     -0.171D-03 0.128D-01-0.438D-01 0.539D-01-0.904D-01 0.230D-01
 Coeff:      0.104D+01
 Gap=     0.803 Goal=   None    Shift=    0.000
 Gap=     0.656 Goal=   None    Shift=    0.000
 RMSDP=3.65D-04 MaxDP=1.80D-03 DE=-9.21D-06 OVMax= 0.00D+00

 Cycle   8  Pass 1  IDiag  1:
 E= -98.1167715365033     Delta-E=       -0.000000477947 Rises=F Damp=F
 DIIS: error= 2.16D-06 at cycle   8 NSaved=   8.
 NSaved= 8 IEnMin= 8 EnMin= -98.1167715365033     IErMin= 8 ErrMin= 2.16D-06
 ErrMax= 2.16D-06  0.00D+00 EMaxC= 1.00D-01 BMatC= 1.06D-10 BMatP= 1.81D-07
 IDIUse=1 WtCom= 1.00D+00 WtEn= 0.00D+00
 Coeff-Com:  0.910D-05-0.383D-03 0.713D-03-0.168D-02 0.178D-02 0.364D-02
 Coeff-Com: -0.270D-01 0.102D+01
 Coeff:      0.910D-05-0.383D-03 0.713D-03-0.168D-02 0.178D-02 0.364D-02
 Coeff:     -0.270D-01 0.102D+01
 Gap=     0.803 Goal=   None    Shift=    0.000
 Gap=     0.656 Goal=   None    Shift=    0.000
 RMSDP=1.06D-05 MaxDP=4.45D-05 DE=-4.78D-07 OVMax= 0.00D+00

 Cycle   9  Pass 1  IDiag  1:
 E= -98.1167715366452     Delta-E=       -0.000000000142 Rises=F Damp=F
 DIIS: error= 8.55D-07 at cycle   9 NSaved=   9.
 NSaved= 9 IEnMin= 9 EnMin= -98.1167715366452     IErMin= 9 ErrMin= 8.55D-07
 ErrMax= 8.55D-07  0.00D+00 EMaxC= 1.00D-01 BMatC= 1.56D-11 BMatP= 1.06D-10
 IDIUse=1 WtCom= 1.00D+00 WtEn= 0.00D+00
 Coeff-Com: -0.376D-06 0.162D-04-0.418D-04 0.127D-03-0.239D-03 0.988D-03
 Coeff-Com: -0.101D-02 0.201D-01 0.980D+00
 Coeff:     -0.376D-06 0.162D-04-0.418D-04 0.127D-03-0.239D-03 0.988D-03
 Coeff:     -0.101D-02 0.201D-01 0.980D+00
 Gap=     0.803 Goal=   None    Shift=    0.000
 Gap=     0.656 Goal=   None    Shift=    0.000
 RMSDP=4.25D-06 MaxDP=2.05D-05 DE=-1.42D-10 OVMax= 0.00D+00

 Cycle  10  Pass 1  IDiag  1:
 E= -98.1167715366996     Delta-E=       -0.000000000054 Rises=F Damp=F
 DIIS: error= 6.47D-08 at cycle  10 NSaved=  10.
 NSaved=10 IEnMin=10 EnMin= -98.1167715366996     IErMin=10 ErrMin= 6.47D-08
 ErrMax= 6.47D-08  0.00D+00 EMaxC= 1.00D-01 BMatC= 8.98D-14 BMatP= 1.56D-11
 IDIUse=1 WtCom= 1.00D+00 WtEn= 0.00D+00
 Coeff-Com: -0.369D-08-0.259D-06 0.788D-06-0.214D-05 0.492D-05-0.296D-04
 Coeff-Com:  0.798D-04-0.163D-02 0.434D-01 0.958D+00
 Coeff:     -0.369D-08-0.259D-06 0.788D-06-0.214D-05 0.492D-05-0.296D-04
 Coeff:      0.798D-04-0.163D-02 0.434D-01 0.958D+00
 Gap=     0.803 Goal=   None    Shift=    0.000
 Gap=     0.656 Goal=   None    Shift=    0.000
 RMSDP=3.05D-07 MaxDP=1.47D-06 DE=-5.43D-11 OVMax= 0.00D+00

 Cycle  11  Pass 1  IDiag  1:
 E= -98.1167715366999     Delta-E=       -0.000000000000 Rises=F Damp=F
 DIIS: error= 1.05D-09 at cycle  11 NSaved=  11.
 NSaved=11 IEnMin=11 EnMin= -98.1167715366999     IErMin=11 ErrMin= 1.05D-09
 ErrMax= 1.05D-09  0.00D+00 EMaxC= 1.00D-01 BMatC= 2.35D-17 BMatP= 8.98D-14
 IDIUse=1 WtCom= 1.00D+00 WtEn= 0.00D+00
 Large coefficients: NSaved= 11 BigCof=    0.00 CofMax=   10.00 Det=-5.07D-23
 Inversion failed.  Reducing to 10 matrices.
 Coeff-Com:  0.820D-10-0.189D-09 0.140D-08-0.846D-08-0.182D-07 0.557D-06
 Coeff-Com:  0.199D-05-0.102D-02 0.351D-02 0.998D+00
 Coeff:      0.820D-10-0.189D-09 0.140D-08-0.846D-08-0.182D-07 0.557D-06
 Coeff:      0.199D-05-0.102D-02 0.351D-02 0.998D+00
 Gap=     0.803 Goal=   None    Shift=    0.000
 Gap=     0.656 Goal=   None    Shift=    0.000
 RMSDP=4.90D-09 MaxDP=2.36D-08 DE=-2.98D-13 OVMax= 0.00D+00

 SCF Done:  E(UHF) =  -98.1167715367     A.U. after   11 cycles
            NFock= 11  Conv=0.49D-08     -V/T= 2.0246
 <Sx>= 0.0000 <Sy>= 0.0000 <Sz>= 0.5000 <S**2>= 0.8227 S= 0.5357
 <L.S>=  0.00000000000    
 KE= 9.576048465642D+01 PE=-2.357755031443D+02 EE= 3.872318368569D+01
 Annihilation of the first spin contaminant:
 S**2 before annihilation     0.8227,   after     0.7500
 Leave Link  502 at Fri Feb  6 07:17:10 2026, MaxMem=  1048576000 cpu:               0.6 elap:               0.1
 (Enter /opt/Programs/Gaussian/16RevA.03//g16/l801.exe)
 Windowed orbitals will be sorted by symmetry type.
 ExpMin= 1.69D-01 ExpMax= 1.67D+02 ExpMxC= 1.67D+02 IAcc=3 IRadAn=         5 AccDes= 0.00D+00
 HarFok:  IExCor=  205 AccDes= 0.00D+00 IRadAn=         5 IDoV=-2 UseB2=F ITyADJ=14
 ICtDFT= 12500011 ScaDFX=  1.000000  1.000000  1.000000  1.000000
 Largest valence mixing into a core orbital is  2.22D-05
 Largest core mixing into a valence orbital is  1.89D-05
 Largest valence mixing into a core orbital is  4.29D-05
 Largest core mixing into a valence orbital is  4.10D-05
 Range of M.O.s used for correlation:     2     6
 NBasis=     6 NAE=     5 NBE=     4 NFC=     1 NFV=     0
 NROrb=      5 NOA=     4 NOB=     3 NVA=     1 NVB=     2
 Leave Link  801 at Fri Feb  6 07:17:10 2026, MaxMem=  1048576000 cpu:               0.3 elap:               0.0
 (Enter /opt/Programs/Gaussian/16RevA.03//g16/l804.exe)
 Open-shell transformation, MDV=  1048576000 ITran=4 ISComp=2.
 Unit  1 TFree=          3871 TCopy=        216890.
 Semi-Direct transformation.
 ModeAB=           2 MOrb=             4 LenV=    1048456960
 LASXX=           20 LTotXX=          20 LenRXX=          20
 LTotAB=          75 MaxLAS=         420 LenRXY=         420
 NonZer=         540 LenScr=      785920 LnRSAI=           0
 LnScr1=           0 LExtra=           0 Total=       786360
 MaxDsk=          -1 SrtSym=           F ITran=            4
 DoSDTr:  NPSUse=  8
 JobTyp=1 Pass  1:  I=   1 to   4.
 (rs|ai) integrals will be sorted in core.
 Complete sort for first half transformation.
 First half transformation complete.
 Complete sort for second half transformation.
 Second half transformation complete.
 ModeAB=           2 MOrb=             3 LenV=    1048456960
 LASXX=           20 LTotXX=          20 LenRXX=         315
 LTotAB=           6 MaxLAS=         315 LenRXY=           6
 NonZer=         405 LenScr=      785920 LnRSAI=           0
 LnScr1=           0 LExtra=           0 Total=       786241
 MaxDsk=          -1 SrtSym=           F ITran=            4
 DoSDTr:  NPSUse=  8
 JobTyp=2 Pass  1:  I=   1 to   3.
 (rs|ai) integrals will be sorted in core.
 Complete sort for first half transformation.
 First half transformation complete.
 Complete sort for second half transformation.
 Second half transformation complete.
 Spin components of T(2) and E(2):
     alpha-alpha T2 =       0.0000000000D+00 E2=      0.0000000000D+00
     alpha-beta  T2 =       0.8666923748D-02 E2=     -0.1345129761D-01
     beta-beta   T2 =       0.0000000000D+00 E2=      0.0000000000D+00
 ANorm=    0.1004324113D+01
 E2 =    -0.1345129761D-01 EUMP2 =    -0.98130222834306D+02
 (S**2,0)=  0.82266D+00           (S**2,1)=  0.80515D+00
 E(PUHF)=      -0.98121543463D+02        E(PMP2)=      -0.98134419526D+02
 Leave Link  804 at Fri Feb  6 07:17:10 2026, MaxMem=  1048576000 cpu:               0.4 elap:               0.1
 (Enter /opt/Programs/Gaussian/16RevA.03//g16/l913.exe)
 CIDS:  MDV=  1048576000.
 Frozen-core window:  NFC=   1 NFV=   0.
 IFCWin=0 IBDFC=1 NFBD=     0     0 NFCmp=     0     0 NFFFC=     0     0
 Using original routines for 1st iteration.
 Using DD4UQ or CC4UQ for 2nd and later iterations.
 Keep R2 and R3 ints in memory in symmetry-blocked form, NReq=1604964.
 FoFCou: FMM=F IPFlag=           0 FMFlag=           0 FMFlg1=           0
         NFxFlg=           0 DoJE=F BraDBF=F KetDBF=F FulRan=T
         wScrn=  0.000000 ICntrl=       600 IOpCl=  0 I1Cent=           0 NGrid=           0
         NMat0=    1 NMatS0=     21 NMatT0=    0 NMatD0=    1 NMtDS0=    0 NMtDT0=    0
 Petite list used in FoFCou.
 CIDS: In Core Option IDoMem=           1.
 Coupled Cluster theory with single and double substitutions
 ===========================================================
 Iterations=  50 Convergence= 0.100D-06
 Produce multiple copies of IABC intergrals
 Iteration Nr.   1
 **********************
 DD1Dir will call FoFMem   1 times, MxPair=        28
 NAB=    12 NAA=     0 NBB=     3.
 E(PMP3)=      -0.98136579372D+02
 MP4(R+Q)=  0.11658137D-03
 Maximum subspace dimension=  5
 A-vector RMS=  3.4415182D-02 Max=  4.5370790D-02 conv= 1.00D-05.
 RLE energy=       -0.0167571870
 E3=       -0.28795335D-02        EUMP3=      -0.98133102368D+02
 E4(DQ)=   -0.79188711D-03        UMP4(DQ)=   -0.98133894255D+02
 E4(SDQ)=  -0.27223646D-02        UMP4(SDQ)=  -0.98135824732D+02
 VARIATIONAL ENERGIES WITH THE FIRST-ORDER WAVEFUNCTION:
 DE(Corr)= -0.16106100E-01 E(Corr)=     -98.132877637    
 NORM(A)=   0.10088203D+01
 Iteration Nr.   2
 **********************
 DD1Dir will call FoFMem   1 times, MxPair=        28
 NAB=    12 NAA=     0 NBB=     3.
 A-vector RMS=  1.4312853D-02 Max=  1.9969596D-02 conv= 1.00D-05.
 RLE energy=       -0.0234688152
 DE(Corr)= -0.19640774E-01 E(CORR)=     -98.136412311     Delta=-3.53D-03
 NORM(A)=   0.10210550D+01
 Iteration Nr.   3
 **********************
 DD1Dir will call FoFMem   1 times, MxPair=        28
 NAB=    12 NAA=     0 NBB=     3.
 A-vector RMS=  7.8012252D-03 Max=  8.7578000D-03 conv= 1.00D-05.
 RLE energy=       -0.0241712606
 DE(Corr)= -0.23503811E-01 E(CORR)=     -98.140275347     Delta=-3.86D-03
 NORM(A)=   0.10234033D+01
 Iteration Nr.   4
 **********************
 DD1Dir will call FoFMem   1 times, MxPair=        28
 NAB=    12 NAA=     0 NBB=     3.
 A-vector RMS=  3.6913601D-03 Max=  5.5881538D-03 conv= 1.00D-05.
 RLE energy=       -0.0247544929
 DE(Corr)= -0.24126260E-01 E(CORR)=     -98.140897797     Delta=-6.22D-04
 NORM(A)=   0.10264666D+01
 Iteration Nr.   5
 **********************
 DD1Dir will call FoFMem   1 times, MxPair=        28
 NAB=    12 NAA=     0 NBB=     3.
 A-vector RMS=  2.1283258D-03 Max=  2.4443683D-03 conv= 1.00D-05.
 RLE energy=       -0.0248812523
 DE(Corr)= -0.24702236E-01 E(CORR)=     -98.141473773     Delta=-5.76D-04
 NORM(A)=   0.10276139D+01
 Iteration Nr.   6
 **********************
 DD1Dir will call FoFMem   1 times, MxPair=        28
 NAB=    12 NAA=     0 NBB=     3.
 A-vector RMS=  1.2850889D-03 Max=  1.9116589D-03 conv= 1.00D-05.
 RLE energy=       -0.0248905744
 DE(Corr)= -0.24990877E-01 E(CORR)=     -98.141762414     Delta=-2.89D-04
 NORM(A)=   0.10273206D+01
 Iteration Nr.   7
 **********************
 DD1Dir will call FoFMem   1 times, MxPair=        28
 NAB=    12 NAA=     0 NBB=     3.
 A-vector RMS=  3.0635242D-04 Max=  2.3648562D-04 conv= 1.00D-05.
 RLE energy=       -0.0248838764
 DE(Corr)= -0.24900816E-01 E(CORR)=     -98.141672352     Delta= 9.01D-05
 NORM(A)=   0.10272776D+01
 Iteration Nr.   8
 **********************
 DD1Dir will call FoFMem   1 times, MxPair=        28
 NAB=    12 NAA=     0 NBB=     3.
 A-vector RMS=  9.1333048D-05 Max=  1.0098836D-04 conv= 1.00D-05.
 RLE energy=       -0.0248932652
 DE(Corr)= -0.24885691E-01 E(CORR)=     -98.141657228     Delta= 1.51D-05
 NORM(A)=   0.10273102D+01
 Iteration Nr.   9
 **********************
 DD1Dir will call FoFMem   1 times, MxPair=        28
 NAB=    12 NAA=     0 NBB=     3.
 A-vector RMS=  1.0102313D-05 Max=  1.5938012D-05 conv= 1.00D-05.
 RLE energy=       -0.0248924871
 DE(Corr)= -0.24892820E-01 E(CORR)=     -98.141664357     Delta=-7.13D-06
 NORM(A)=   0.10273073D+01
 Iteration Nr.  10
 **********************
 DD1Dir will call FoFMem   1 times, MxPair=        28
 NAB=    12 NAA=     0 NBB=     3.
 A-vector RMS=  2.8589949D-06 Max=  3.7229662D-06 conv= 1.00D-05.
 RLE energy=       -0.0248924127
 DE(Corr)= -0.24892391E-01 E(CORR)=     -98.141663928     Delta= 4.29D-07
 NORM(A)=   0.10273072D+01
 Iteration Nr.  11
 **********************
 DD1Dir will call FoFMem   1 times, MxPair=        28
 NAB=    12 NAA=     0 NBB=     3.
 A-vector RMS=  1.5283261D-06 Max=  1.7960798D-06 conv= 1.00D-05.
 RLE energy=       -0.0248923193
 DE(Corr)= -0.24892318E-01 E(CORR)=     -98.141663854     Delta= 7.35D-08
 NORM(A)=   0.10273076D+01
 CI/CC converged in   11 iterations to DelEn= 7.35D-08 Conv= 1.00D-07 ErrA1= 1.53D-06 Conv= 1.00D-05
 Wavefunction amplitudes converged. E(Corr)=     -98.141663854    
 Dominant configurations:
 ***********************
 Spin Case        I    J    A    B          Value
    AA            4         6           -0.139765D+00
   ABAB           4    4    6    5      -0.162649D+00
 Largest amplitude= 1.63D-01

 S**2, projected HF & approx projected MPn energies after annihilation of
 unwanted spin states (see manual for definitions):

 spins       (S**2,0) (S**2,1)    PUHF        PMP2        PMP3        PMP4
 annihilated
 s+1         0.75000  0.75000  -98.121543  -98.134420  -98.136579

 Discarding MO integrals.
 Leave Link  913 at Fri Feb  6 07:17:10 2026, MaxMem=  1048576000 cpu:               0.7 elap:               0.1
 (Enter /opt/Programs/Gaussian/16RevA.03//g16/l601.exe)
 Copying SCF densities to generalized density rwf, IOpCl= 1 IROHF=0.

 **********************************************************************

            Population analysis using the SCF density.

 **********************************************************************

 Orbital symmetries:
 Alpha Orbitals:
       Occupied  (SG) (SG) (PI) (SG) (PI)
       Virtual   (SG)
 Beta  Orbitals:
       Occupied  (SG) (SG) (PI) (SG)
       Virtual   (SG) (PI)
 Unable to determine electronic state:  partially filled degenerate orbitals.
 Alpha  occ. eigenvalues --  -26.69450  -2.06958  -1.17702  -1.10058  -1.06948
 Alpha virt. eigenvalues --   -0.26690
  Beta  occ. eigenvalues --  -26.65806  -1.83637  -1.00401  -0.95905
  Beta virt. eigenvalues --   -0.30296  -0.16780
          Condensed to atoms (all electrons):
               1          2
     1  H    0.288179   0.092190
     2  F    0.092190   8.527441
          Atomic-Atomic Spin Densities.
               1          2
     1  H   -0.186390  -0.024980
     2  F   -0.024980   1.236350
 Mulliken charges and spin densities:
               1          2
     1  H    0.619631  -0.211370
     2  F    0.380369   1.211370
 Sum of Mulliken charges =   1.00000   1.00000
 Mulliken charges and spin densities with hydrogens summed into heavy atoms:
               1          2
     2  F    1.000000   1.000000
 Electronic spatial extent (au):  <R**2>=             11.4599
 Charge=              1.0000 electrons
 Dipole moment (field-independent basis, Debye):
    X=              0.0000    Y=              0.0000    Z=             -4.0028  Tot=              4.0028
 Quadrupole moment (field-independent basis, Debye-Ang):
   XX=             -4.1403   YY=             -3.5181   ZZ=              1.9710
   XY=              0.0000   XZ=              0.0000   YZ=              0.0000
 Traceless Quadrupole moment (field-independent basis, Debye-Ang):
   XX=             -2.2445   YY=             -1.6223   ZZ=              3.8668
   XY=              0.0000   XZ=              0.0000   YZ=              0.0000
 Octapole moment (field-independent basis, Debye-Ang**2):
  XXX=              0.0000  YYY=              0.0000  ZZZ=             -8.5608  XYY=              0.0000
  XXY=              0.0000  XXZ=             -0.1653  XZZ=              0.0000  YZZ=              0.0000
  YYZ=             -0.0720  XYZ=              0.0000
 Hexadecapole moment (field-independent basis, Debye-Ang**3):
 XXXX=             -1.6608 YYYY=             -1.3369 ZZZZ=              6.0868 XXXY=              0.0000
 XXXZ=              0.0000 YYYX=              0.0000 YYYZ=              0.0000 ZZZX=              0.0000
 ZZZY=              0.0000 XXYY=             -0.4996 XXZZ=             -1.1308 YYZZ=             -1.0628
 XXYZ=              0.0000 YYXZ=              0.0000 ZZXY=              0.0000
 N-N= 3.175063265520D+00 E-N=-2.357755032139D+02  KE= 9.576048465642D+01
 Symmetry A1   KE= 8.601644033220D+01
 Symmetry A2   KE= 0.000000000000D+00
 Symmetry B1   KE= 6.496029549482D+00
 Symmetry B2   KE= 3.248014774741D+00
 Symmetry A1   SP= 1.124100812433D-15
 Symmetry A2   SP= 0.000000000000D+00
 Symmetry B1   SP= 0.000000000000D+00
 Symmetry B2   SP= 1.000000000000D+00
 Leave Link  601 at Fri Feb  6 07:17:10 2026, MaxMem=  1048576000 cpu:               0.2 elap:               0.0
 (Enter /opt/Programs/Gaussian/16RevA.03//g16/l9999.exe)
 1\1\GINC-CHOU\SP\UCCSD-FC\STO-3G\F1H1(1+,2)\RTCHOU\06-Feb-2026\0\\#p C
 CSD/STO-3G\\Generated by ChouChem Test Suite\\1,2\H,0,0.,0.,0.\F,0,0.,
 0.,1.5\\Version=ES64L-G16RevA.03\HF=-98.1167715\MP2=-98.1302228\MP3=-9
 8.1331024\MP4D=-98.1340108\MP4DQ=-98.1338943\PUHF=-98.1215435\PMP2-0=-
 98.1344195\PMP3-0=-98.1365794\MP4SDQ=-98.1358247\CCSD=-98.1416639\S2=0
 .822665\S2-1=0.805146\S2A=0.75\RMSD=4.899e-09\PG=C*V [C*(H1F1)]\\@


 WE SHOULD BE CAREFUL TO GET OUT OF AN EXPERIENCE ONLY THE WISDOM
 THAT IS IN IT -- AND STOP THERE;
 LEST WE BE LIKE THE CAT THAT SITS DOWN ON A HOT STOVE-LID.
 SHE WILL NEVER SIT DOWN ON A HOT STOVE LID AGAIN;
 BUT ALSO SHE WILL NEVER SIT DOWN ON A COLD ONE ANY MORE.

                                                     -- MARK TWAIN
 Job cpu time:       0 days  0 hours  0 minutes  5.7 seconds.
 Elapsed time:       0 days  0 hours  0 minutes  0.7 seconds.
 File lengths (MBytes):  RWF=     13 Int=      0 D2E=      0 Chk=      1 Scr=      1
 Normal termination of Gaussian 16 at Fri Feb  6 07:17:10 2026.
